REMARK  Name = ligand_5113
REMARK  4 active torsions:
REMARK  status: ('A' for Active; 'I' for Inactive)
REMARK    1  A    between atoms: C_1  and  O_2
REMARK    2  A    between atoms: O_2  and  C_3
REMARK    3  A    between atoms: C_3  and  C_4
REMARK    4  A    between atoms: C_3  and  C_5
REMARK                            x       y       z     vdW  Elec       q    Type
REMARK                         _______ _______ _______ _____ _____    ______ ____
ROOT
ATOM      1  C   UNL     1       2.803  -1.231   0.436  0.00  0.00    +0.000 C 
ATOM      2  C   UNL     1       2.404  -2.479  -0.347  0.00  0.00    +0.000 C 
ATOM      3  C   UNL     1       4.322  -1.122   0.513  0.00  0.00    +0.000 C 
ENDROOT
BRANCH   1   5
ATOM      4  C   UNL     1       0.918   0.082  -0.231  0.00  0.00    +0.000 C 
ATOM      5  O   UNL     1       2.333  -0.035  -0.194  0.00  0.00    +0.000 OA
ENDBRANCH   1   5
TORSDOF 1
