REMARK  Name = ligand_6435
REMARK  0 active torsions:
REMARK  status: ('A' for Active; 'I' for Inactive)
REMARK                            x       y       z     vdW  Elec       q    Type
REMARK                         _______ _______ _______ _____ _____    ______ ____
ROOT
ATOM      1  C   UNL     1       0.929  -1.095   0.041  0.00  0.00    +0.000 C 
ATOM      2  C   UNL     1      -0.518  -1.537   0.040  0.00  0.00    +0.000 C 
ATOM      3  C   UNL     1      -1.319  -0.460   0.018  0.00  0.00    +0.000 C 
ATOM      4  C   UNL     1      -0.580   0.813   0.025  0.00  0.00    +0.000 C 
ATOM      5  O   UNL     1       0.355   1.136   1.067  0.00  0.00    +0.000 OA
ATOM      6  C   UNL     1       0.880   0.413  -0.048  0.00  0.00    +0.000 C 
ENDROOT
TORSDOF 0
