REMARK  Name = ligand_6852
REMARK  5 active torsions:
REMARK  status: ('A' for Active; 'I' for Inactive)
REMARK    1  A    between atoms: C_1  and  N_2
REMARK    2  A    between atoms: N_2  and  C_3
REMARK    3  A    between atoms: C_3  and  C_4
REMARK    4  A    between atoms: C_4  and  O_5
REMARK    5  A    between atoms: O_5  and  C_6
REMARK                            x       y       z     vdW  Elec       q    Type
REMARK                         _______ _______ _______ _____ _____    ______ ____
ROOT
ATOM      1  C   UNL     1       2.872   1.305  -0.222  0.00  0.00    +0.000 C 
ENDROOT
BRANCH   1   3
ATOM      2  C   UNL     1       0.883  -0.037  -0.012  0.00  0.00    +0.000 C 
ATOM      3  N   UNL     1       2.339  -0.046  -0.013  0.00  0.00    +0.000 NA
ATOM      4  H   UNL     1       2.665  -0.656  -0.760  0.00  0.00    +0.000 HD
ENDBRANCH   1   3
BRANCH   1   5
ATOM      5  C   UNL     1       4.404   1.300  -0.218  0.00  0.00    +0.000 C 
BRANCH   5   6
ATOM      6  O   UNL     1       4.882   2.631  -0.434  0.00  0.00    +0.000 OA
ATOM      7  C   UNL     1       6.303   2.674  -0.433  0.00  0.00    +0.000 C 
ENDBRANCH   5   6
ENDBRANCH   1   5
TORSDOF 3
