REMARK  Name = ligand_7101
REMARK  1 active torsions:
REMARK  status: ('A' for Active; 'I' for Inactive)
REMARK    1  A    between atoms: C_1  and  C_2
REMARK                            x       y       z     vdW  Elec       q    Type
REMARK                         _______ _______ _______ _____ _____    ______ ____
ROOT
ATOM      1  C   UNL     1       1.068  -0.113   0.070  0.00  0.00    +0.000 C 
ATOM      2  C   UNL     1       2.595  -0.088  -0.043  0.00  0.00    +0.000 C 
ATOM      3  C   UNL     1       3.075   1.139  -0.843  0.00  0.00    +0.000 C 
ATOM      4  C   UNL     1       3.440   0.571  -2.179  0.00  0.00    +0.000 C 
ATOM      5  C   UNL     1       3.473  -0.767  -2.158  0.00  0.00    +0.000 C 
ATOM      6  C   UNL     1       3.108  -1.259  -0.853  0.00  0.00    +0.000 C 
ATOM      7  C   UNL     1       3.243  -2.523  -0.440  0.00  0.00    +0.000 C 
ENDROOT
TORSDOF 0
