REMARK  Name = ligand_71368
REMARK  5 active torsions:
REMARK  status: ('A' for Active; 'I' for Inactive)
REMARK    1  A    between atoms: C_1  and  C_2
REMARK    2  A    between atoms: C_2  and  N_3
REMARK    3  A    between atoms: N_3  and  C_4
REMARK    4  A    between atoms: N_3  and  N_5
REMARK    5  A    between atoms: C_6  and  C_7
REMARK                            x       y       z     vdW  Elec       q    Type
REMARK                         _______ _______ _______ _____ _____    ______ ____
ROOT
ATOM      1  N   UNL     1       2.925  -0.122  -1.507  0.00  0.00    +0.000 N 
ATOM      2  C   UNL     1       1.954  -0.121  -2.595  0.00  0.00    +0.000 C 
ENDROOT
BRANCH   1   3
ATOM      3  N   UNL     1       4.269  -0.086  -1.671  0.00  0.00    +0.000 NA
ATOM      4  C   UNL     1       4.755  -0.130  -2.861  0.00  0.00    +0.000 C 
ATOM      5  C   UNL     1       6.236  -0.140  -3.082  0.00  0.00    +0.000 C 
ENDBRANCH   1   3
BRANCH   1   7
ATOM      6  C   UNL     1       1.539  -1.148   0.356  0.00  0.00    +0.000 C 
ATOM      7  C   UNL     1       2.407   0.004  -0.141  0.00  0.00    +0.000 C 
ENDBRANCH   1   7
TORSDOF 2
