REMARK  Name = ligand_71960
REMARK  0 active torsions:
REMARK  status: ('A' for Active; 'I' for Inactive)
REMARK                            x       y       z     vdW  Elec       q    Type
REMARK                         _______ _______ _______ _____ _____    ______ ____
ROOT
ATOM      1  C   UNL     1       1.844   0.014  -0.699  0.00  0.00    +0.000 C 
ATOM      2  C   UNL     1       1.843  -0.041   0.804  0.00  0.00    +0.000 C 
ATOM      3  C   UNL     1       0.545   0.024   0.052  0.00  0.00    +0.000 C 
ATOM      4  C   UNL     1      -0.349   1.208   0.107  0.00  0.00    +0.000 C 
ATOM      5  O   UNL     1      -1.672   0.689  -0.065  0.00  0.00    +0.000 OA
ATOM      6  C   UNL     1      -1.591  -0.716   0.207  0.00  0.00    +0.000 C 
ATOM      7  O   UNL     1      -0.249  -1.163   0.039  0.00  0.00    +0.000 OA
ENDROOT
TORSDOF 0
