REMARK  Name = ligand_72495
REMARK  5 active torsions:
REMARK  status: ('A' for Active; 'I' for Inactive)
REMARK    1  A    between atoms: C_1  and  C_2
REMARK    2  A    between atoms: C_2  and  C_3
REMARK    3  A    between atoms: C_4  and  C_5
REMARK    4  A    between atoms: C_5  and  C_6
REMARK    5  A    between atoms: C_6  and  O_7
REMARK                            x       y       z     vdW  Elec       q    Type
REMARK                         _______ _______ _______ _____ _____    ______ ____
ROOT
ATOM      1  C   UNL     1       2.982   0.925   1.106  0.00  0.00    +0.000 C 
ATOM      2  C   UNL     1       4.291   1.093   1.353  0.00  0.00    +0.000 C 
ENDROOT
BRANCH   1   4
ATOM      3  C   UNL     1       1.589   0.897  -0.965  0.00  0.00    +0.000 C 
ATOM      4  C   UNL     1       2.444   0.078  -0.011  0.00  0.00    +0.000 C 
ENDBRANCH   1   4
BRANCH   2   5
ATOM      5  C   UNL     1       4.822   1.960   2.466  0.00  0.00    +0.000 C 
BRANCH   5   6
ATOM      6  C   UNL     1       5.701   3.097   1.944  0.00  0.00    +0.000 C 
BRANCH   6   7
ATOM      7  O   UNL     1       4.967   3.979   1.100  0.00  0.00    +0.000 OA
ATOM      8  H   UNL     1       4.601   3.443   0.374  0.00  0.00    +0.000 HD
ENDBRANCH   6   7
ENDBRANCH   5   6
ENDBRANCH   2   5
TORSDOF 4
