REMARK  Name = ligand_73075
REMARK  4 active torsions:
REMARK  status: ('A' for Active; 'I' for Inactive)
REMARK    1  A    between atoms: C_1  and  O_2
REMARK    2  A    between atoms: O_2  and  C_3
REMARK    3  A    between atoms: C_3  and  C_5
REMARK    4  A    between atoms: C_6  and  C_7
REMARK                            x       y       z     vdW  Elec       q    Type
REMARK                         _______ _______ _______ _____ _____    ______ ____
ROOT
ATOM      1  C   UNL     1       3.044  -1.160   0.693  0.00  0.00    +0.000 C 
ATOM      2  O   UNL     1       2.406  -2.016   1.284  0.00  0.00    +0.000 OA
ENDROOT
BRANCH   1   3
ATOM      3  C   UNL     1       4.520  -1.082   0.640  0.00  0.00    +0.000 C 
ATOM      4  C   UNL     1       5.263  -2.002   1.275  0.00  0.00    +0.000 C 
ATOM      5  C   UNL     1       6.756  -2.021   1.288  0.00  0.00    +0.000 C 
ENDBRANCH   1   3
BRANCH   1   7
ATOM      6  C   UNL     1       1.107  -0.100  -0.038  0.00  0.00    +0.000 C 
ATOM      7  O   UNL     1       2.535  -0.125  -0.021  0.00  0.00    +0.000 OA
ENDBRANCH   1   7
TORSDOF 2
