REMARK  Name = ligand_73133
REMARK  2 active torsions:
REMARK  status: ('A' for Active; 'I' for Inactive)
REMARK    1  A    between atoms: O_1  and  C_2
REMARK    2  A    between atoms: C_2  and  C_6
REMARK                            x       y       z     vdW  Elec       q    Type
REMARK                         _______ _______ _______ _____ _____    ______ ____
ROOT
ATOM      1  C   UNL     1       2.358  -0.088  -0.092  0.00  0.00    +0.000 C 
ATOM      2  C   UNL     1       3.097  -1.160   0.762  0.00  0.00    +0.000 C 
ATOM      3  C   UNL     1       4.134  -0.088   1.144  0.00  0.00    +0.000 C 
ATOM      4  C   UNL     1       3.096   0.983   0.762  0.00  0.00    +0.000 C 
ENDROOT
BRANCH   1   5
ATOM      5  O   UNL     1       0.921  -0.089   0.031  0.00  0.00    +0.000 OA
ATOM      6  H   UNL     1       0.743  -0.089   0.984  0.00  0.00    +0.000 HD
ENDBRANCH   1   5
BRANCH   1   7
ATOM      7  C   UNL     1       2.679  -0.088  -1.508  0.00  0.00    +0.000 C 
ATOM      8  C   UNL     1       2.894  -0.088  -2.689  0.00  0.00    +0.000 C 
ENDBRANCH   1   7
TORSDOF 2
