REMARK  Name = ligand_73478
REMARK  1 active torsions:
REMARK  status: ('A' for Active; 'I' for Inactive)
REMARK    1  A    between atoms: C_1  and  C_2
REMARK                            x       y       z     vdW  Elec       q    Type
REMARK                         _______ _______ _______ _____ _____    ______ ____
ROOT
ATOM      1  C   UNL     1      -1.750   1.408   0.006  0.00  0.00    +0.000 C 
ATOM      2  C   UNL     1      -0.419   0.768   0.007  0.00  0.00    +0.000 C 
ATOM      3  C   UNL     1       0.811   1.301   0.018  0.00  0.00    +0.000 C 
ATOM      4  C   UNL     1       1.886   0.273   0.036  0.00  0.00    +0.000 C 
ATOM      5  N   UNL     1       1.116  -0.926  -0.003  0.00  0.00    +0.000 N 
ATOM      6  C   UNL     1      -0.236  -0.694  -0.005  0.00  0.00    +0.000 C 
ATOM      7  O   UNL     1      -1.119  -1.529  -0.015  0.00  0.00    +0.000 OA
ATOM      8  H   UNL     1       1.482  -1.868  -0.001  0.00  0.00    +0.000 HD
ENDROOT
TORSDOF 0
