REMARK  Name = ligand_73822
REMARK  1 active torsions:
REMARK  status: ('A' for Active; 'I' for Inactive)
REMARK    1  A    between atoms: C_2  and  C_3
REMARK                            x       y       z     vdW  Elec       q    Type
REMARK                         _______ _______ _______ _____ _____    ______ ____
ROOT
ATOM      1  C   UNL     1       3.879   0.156  -0.047  0.00  0.00    +0.000 C 
ATOM      2  N   UNL     1       4.514  -0.959  -0.023  0.00  0.00    +0.000 NA
ATOM      3  O   UNL     1       5.869  -0.584  -0.158  0.00  0.00    +0.000 OA
ATOM      4  C   UNL     1       5.859   0.834  -0.355  0.00  0.00    +0.000 C 
ATOM      5  O   UNL     1       4.544   1.317  -0.180  0.00  0.00    +0.000 OA
ENDROOT
BRANCH   1   7
ATOM      6  C   UNL     1       1.256   0.130   0.059  0.00  0.00    +0.000 C 
ATOM      7  C   UNL     1       2.455   0.146   0.030  0.00  0.00    +0.000 C 
ENDBRANCH   1   7
TORSDOF 1
