REMARK  Name = ligand_73859
REMARK  4 active torsions:
REMARK  status: ('A' for Active; 'I' for Inactive)
REMARK    1  A    between atoms: C_1  and  C_2
REMARK    2  A    between atoms: C_2  and  C_3
REMARK    3  A    between atoms: C_3  and  C_5
REMARK    4  A    between atoms: N_6  and  O_7
REMARK                            x       y       z     vdW  Elec       q    Type
REMARK                         _______ _______ _______ _____ _____    ______ ____
ROOT
ATOM      1  C   UNL     1       2.991   0.094   1.615  0.00  0.00    +0.000 C 
ATOM      2  C   UNL     1       2.194   0.199   2.690  0.00  0.00    +0.000 C 
ENDROOT
BRANCH   1   4
ATOM      3  C   UNL     1       1.049  -0.069  -0.060  0.00  0.00    +0.000 C 
ATOM      4  C   UNL     1       2.555  -0.046   0.178  0.00  0.00    +0.000 C 
ENDBRANCH   1   4
BRANCH   1   5
ATOM      5  C   UNL     1       4.460   0.120   1.873  0.00  0.00    +0.000 C 
ATOM      6  N   UNL     1       5.348   0.029   0.936  0.00  0.00    +0.000 NA
BRANCH   6   7
ATOM      7  O   UNL     1       6.624   0.085   1.511  0.00  0.00    +0.000 OA
ATOM      8  H   UNL     1       7.206   0.008   0.731  0.00  0.00    +0.000 HD
ENDBRANCH   6   7
ENDBRANCH   1   5
TORSDOF 3
