REMARK  Name = ligand_74009
REMARK  5 active torsions:
REMARK  status: ('A' for Active; 'I' for Inactive)
REMARK    1  A    between atoms: C_1  and  C_2
REMARK    2  A    between atoms: C_2  and  C_3
REMARK    3  A    between atoms: C_2  and  N_4
REMARK    4  A    between atoms: C_2  and  C_5
REMARK    5  A    between atoms: C_5  and  O_6
REMARK                            x       y       z     vdW  Elec       q    Type
REMARK                         _______ _______ _______ _____ _____    ______ ____
ROOT
ATOM      1  C   UNL     1       1.049  -0.058  -0.017  0.00  0.00    +0.000 C 
ATOM      2  C   UNL     1       2.578  -0.061   0.003  0.00  0.00    +0.000 C 
ATOM      3  C   UNL     1       3.131  -1.472  -0.194  0.00  0.00    +0.000 C 
ENDROOT
BRANCH   2   4
ATOM      4  N   UNL     1       3.075   0.837  -1.086  0.00  0.00    +0.000 NA
ATOM      5  H   UNL     1       2.690   0.501  -1.974  0.00  0.00    +0.000 HD
ATOM      6  H   UNL     1       4.087   0.689  -1.183  0.00  0.00    +0.000 HD
ENDBRANCH   2   4
BRANCH   2   7
ATOM      7  C   UNL     1       3.050   0.524   1.355  0.00  0.00    +0.000 C 
ATOM      8  O   UNL     1       3.136  -0.088   2.406  0.00  0.00    +0.000 OA
BRANCH   7   9
ATOM      9  O   UNL     1       3.338   1.848   1.233  0.00  0.00    +0.000 OA
ATOM     10  H   UNL     1       3.193   2.069   0.279  0.00  0.00    +0.000 HD
ENDBRANCH   7   9
ENDBRANCH   2   7
TORSDOF 3
