REMARK  Name = ligand_74178
REMARK  6 active torsions:
REMARK  status: ('A' for Active; 'I' for Inactive)
REMARK    1  A    between atoms: C_1  and  C_2
REMARK    2  A    between atoms: C_2  and  N_3
REMARK    3  A    between atoms: N_3  and  CA_4
REMARK    4  A    between atoms: CA_4  and  CB_5
REMARK    5  A    between atoms: CA_4  and  C_6
REMARK    6  A    between atoms: C_6  and  O_7
REMARK                            x       y       z     vdW  Elec       q    Type
REMARK                         _______ _______ _______ _____ _____    ______ ____
ROOT
ATOM      1  CA  UNL     1       4.517   1.197  -0.491  0.00  0.00    +0.000 C 
ATOM      2  CB  UNL     1       5.112   0.089  -1.364  0.00  0.00    +0.000 C 
ENDROOT
BRANCH   1   3
ATOM      3  N   UNL     1       3.035   1.180  -0.465  0.00  0.00    +0.000 NA
ATOM      4  H   UNL     1       2.727   1.943   0.140  0.00  0.00    +0.000 HD
BRANCH   3   6
ATOM      5  C   UNL     1       0.966   0.021   0.113  0.00  0.00    +0.000 C 
ATOM      6  C   ACE A   0       2.486  -0.062   0.084  0.00  0.00    +0.000 C 
ENDBRANCH   3   6
ENDBRANCH   1   3
BRANCH   1   7
ATOM      7  C   UNL     1       5.004   2.565  -1.019  0.00  0.00    +0.000 C 
BRANCH   7   8
ATOM      8  O   UNL     1       4.572   3.621  -0.162  0.00  0.00    +0.000 OA
ATOM      9  H   UNL     1       3.620   3.730  -0.332  0.00  0.00    +0.000 HD
ENDBRANCH   7   8
ENDBRANCH   1   7
TORSDOF 4
