REMARK  Name = ligand_74248
REMARK  4 active torsions:
REMARK  status: ('A' for Active; 'I' for Inactive)
REMARK    1  A    between atoms: C_1  and  C_2
REMARK    2  A    between atoms: N_3  and  N_4
REMARK    3  A    between atoms: C_5  and  C_6
REMARK    4  A    between atoms: C_6  and  O_7
REMARK                            x       y       z     vdW  Elec       q    Type
REMARK                         _______ _______ _______ _____ _____    ______ ____
ROOT
ATOM      1  N   UNL     1       4.579  -0.749  -0.869  0.00  0.00    +0.000 NA
ATOM      2  C   UNL     1       5.192  -1.378  -1.823  0.00  0.00    +0.000 C 
ENDROOT
BRANCH   1   5
ATOM      3  C   UNL     1       1.090  -0.178  -0.035  0.00  0.00    +0.000 C 
ATOM      4  C   UNL     1       2.585  -0.207  -0.082  0.00  0.00    +0.000 C 
ATOM      5  N   UNL     1       3.200  -0.846  -1.024  0.00  0.00    +0.000 NA
ENDBRANCH   1   5
BRANCH   2   6
ATOM      6  C   UNL     1       6.699  -1.414  -1.877  0.00  0.00    +0.000 C 
BRANCH   6   7
ATOM      7  O   UNL     1       7.180  -2.746  -1.819  0.00  0.00    +0.000 OA
ATOM      8  H   UNL     1       7.001  -3.074  -0.920  0.00  0.00    +0.000 HD
ENDBRANCH   6   7
ENDBRANCH   2   6
TORSDOF 3
