REMARK  Name = ligand_74290
REMARK  3 active torsions:
REMARK  status: ('A' for Active; 'I' for Inactive)
REMARK    1  A    between atoms: C_1  and  C_2
REMARK    2  A    between atoms: C_2  and  O_3
REMARK    3  A    between atoms: O_3  and  C_4
REMARK                            x       y       z     vdW  Elec       q    Type
REMARK                         _______ _______ _______ _____ _____    ______ ____
ROOT
ATOM      1  C   UNL     1       4.437  -0.781   1.109  0.00  0.00    +0.000 C 
ATOM      2  C   UNL     1       5.067  -1.803   2.080  0.00  0.00    +0.000 C 
ATOM      3  N   UNL     1       6.060  -0.773   2.479  0.00  0.00    +0.000 NA
ATOM      4  C   UNL     1       5.095   0.264   2.038  0.00  0.00    +0.000 C 
ATOM      5  H   UNL     1       6.911  -0.799   1.918  0.00  0.00    +0.000 HD
ENDROOT
BRANCH   1   6
ATOM      6  O   UNL     1       2.993  -0.776   1.019  0.00  0.00    +0.000 OA
BRANCH   6   8
ATOM      7  C   UNL     1       0.933   0.071   0.143  0.00  0.00    +0.000 C 
ATOM      8  C   UNL     1       2.443   0.183   0.121  0.00  0.00    +0.000 C 
ENDBRANCH   6   8
ENDBRANCH   1   6
TORSDOF 2
