REMARK  Name = ligand_7454
REMARK  1 active torsions:
REMARK  status: ('A' for Active; 'I' for Inactive)
REMARK    1  A    between atoms: C_1  and  C_2
REMARK                            x       y       z     vdW  Elec       q    Type
REMARK                         _______ _______ _______ _____ _____    ______ ____
ROOT
ATOM      1  C   UNL     1       1.362   0.405  -0.349  0.00  0.00    +0.000 C 
ATOM      2  C   UNL     1       2.669  -0.097   0.179  0.00  0.00    +0.000 C 
ATOM      3  C   UNL     1       2.850  -1.603   0.351  0.00  0.00    +0.000 C 
ATOM      4  C   UNL     1       4.326  -1.862   0.139  0.00  0.00    +0.000 C 
ATOM      5  C   UNL     1       4.940  -0.708  -0.178  0.00  0.00    +0.000 C 
ATOM      6  C   UNL     1       4.038   0.446  -0.230  0.00  0.00    +0.000 C 
ATOM      7  N   UNL     1       3.431   0.852   1.024  0.00  0.00    +0.000 NA
ATOM      8  H   UNL     1       3.064   1.798   0.942  0.00  0.00    +0.000 HD
ENDROOT
TORSDOF 0
