REMARK  Name = ligand_74570
REMARK  5 active torsions:
REMARK  status: ('A' for Active; 'I' for Inactive)
REMARK    1  A    between atoms: C_1  and  N_2
REMARK    2  A    between atoms: N_2  and  C_3
REMARK    3  A    between atoms: C_3  and  C_4
REMARK    4  A    between atoms: N_5  and  O_6
REMARK    5  A    between atoms: O_6  and  C_7
REMARK                            x       y       z     vdW  Elec       q    Type
REMARK                         _______ _______ _______ _____ _____    ______ ____
ROOT
ATOM      1  C   UNL     1       2.987  -1.127  -1.011  0.00  0.00    +0.000 C 
ENDROOT
BRANCH   1   3
ATOM      2  C   UNL     1       2.959   1.213  -0.371  0.00  0.00    +0.000 C 
ATOM      3  N   UNL     1       2.564  -0.144  -0.003  0.00  0.00    +0.000 NA
ATOM      4  H   UNL     1       1.546  -0.174   0.061  0.00  0.00    +0.000 HD
ENDBRANCH   1   3
BRANCH   1   5
ATOM      5  C   UNL     1       4.493  -1.198  -1.077  0.00  0.00    +0.000 C 
ATOM      6  N   UNL     1       5.120  -0.891  -2.166  0.00  0.00    +0.000 NA
BRANCH   6   7
ATOM      7  O   UNL     1       6.498  -1.021  -1.946  0.00  0.00    +0.000 OA
ATOM      8  C   UNL     1       7.176  -0.658  -3.143  0.00  0.00    +0.000 C 
ENDBRANCH   6   7
ENDBRANCH   1   5
TORSDOF 3
