REMARK  Name = ligand_747
REMARK  4 active torsions:
REMARK  status: ('A' for Active; 'I' for Inactive)
REMARK    1  A    between atoms: C_1  and  C_2
REMARK    2  A    between atoms: C_2  and  C_3
REMARK    3  A    between atoms: C_2  and  C_4
REMARK    4  A    between atoms: C_2  and  C_5
REMARK                            x       y       z     vdW  Elec       q    Type
REMARK                         _______ _______ _______ _____ _____    ______ ____
ROOT
ATOM      1  C   UNL     1       0.881   0.223   0.360  0.00  0.00    +0.000 C 
ATOM      2  C   UNL     1       2.270   0.810   0.628  0.00  0.00    +0.000 C 
ATOM      3  C   UNL     1       3.274  -0.280   1.012  0.00  0.00    +0.000 C 
ATOM      4  C   UNL     1       3.707  -0.888  -0.318  0.00  0.00    +0.000 C 
ENDROOT
BRANCH   2   5
ATOM      5  C   UNL     1       3.504   0.207  -1.369  0.00  0.00    +0.000 C 
ATOM      6  C   UNL     1       2.954   1.421  -0.605  0.00  0.00    +0.000 C 
ATOM      7  C   UNL     1       2.091   2.331  -1.463  0.00  0.00    +0.000 C 
ENDBRANCH   2   5
TORSDOF 1
