REMARK  Name = ligand_7493
REMARK  1 active torsions:
REMARK  status: ('A' for Active; 'I' for Inactive)
REMARK    1  A    between atoms: C_1  and  C_2
REMARK                            x       y       z     vdW  Elec       q    Type
REMARK                         _______ _______ _______ _____ _____    ______ ____
ROOT
ATOM      1  C   UNL     1       1.102   0.133   0.077  0.00  0.00    +0.000 C 
ATOM      2  C   UNL     1       2.554  -0.108   0.002  0.00  0.00    +0.000 C 
ATOM      3  C   UNL     1       3.275  -1.148  -0.433  0.00  0.00    +0.000 C 
ATOM      4  C   UNL     1       4.664  -0.695  -0.173  0.00  0.00    +0.000 C 
ATOM      5  C   UNL     1       4.749   0.823  -0.605  0.00  0.00    +0.000 C 
ATOM      6  C   UNL     1       3.600   0.836   0.477  0.00  0.00    +0.000 C 
ATOM      7  N   UNL     1       4.570  -0.089   1.235  0.00  0.00    +0.000 NA
ATOM      8  H   UNL     1       4.111  -0.696   1.911  0.00  0.00    +0.000 HD
ENDROOT
TORSDOF 0
