REMARK  Name = ligand_75488
REMARK  2 active torsions:
REMARK  status: ('A' for Active; 'I' for Inactive)
REMARK    1  A    between atoms: O_1  and  C_2
REMARK    2  A    between atoms: C_2  and  C_3
REMARK                            x       y       z     vdW  Elec       q    Type
REMARK                         _______ _______ _______ _____ _____    ______ ____
ROOT
ATOM      1  C   UNK     1       2.871  -1.061   1.075  0.00  0.00    +0.000 A 
ATOM      2  C   UNK     1       2.713  -2.429   1.081  0.00  0.00    +0.000 A 
ATOM      3  O   UNK     1       3.252  -2.917   2.232  0.00  0.00    +0.000 OA
ATOM      4  C   UNK     1       3.715  -1.808   2.868  0.00  0.00    +0.000 A 
ATOM      5  N   UNK     1       3.519  -0.675   2.231  0.00  0.00    +0.000 NA
ENDROOT
BRANCH   1   6
ATOM      6  C   UNK     1       2.456  -0.067   0.055  0.00  0.00    +0.000 C 
BRANCH   6   7
ATOM      7  O   UNK     1       1.766  -0.663  -1.041  0.00  0.00    +0.000 OA
ATOM      8  H   UNK     1       1.495   0.068  -1.622  0.00  0.00    +0.000 HD
ENDBRANCH   6   7
ENDBRANCH   1   6
TORSDOF 2
