REMARK  Name = ligand_75514
REMARK  2 active torsions:
REMARK  status: ('A' for Active; 'I' for Inactive)
REMARK    1  A    between atoms: O_1  and  C_2
REMARK    2  A    between atoms: C_2  and  C_3
REMARK                            x       y       z     vdW  Elec       q    Type
REMARK                         _______ _______ _______ _____ _____    ______ ____
ROOT
ATOM      1  C   UNL     1       2.953   0.923   1.244  0.00  0.00    +0.000 C 
ATOM      2  N   UNL     1       2.815   2.213   1.247  0.00  0.00    +0.000 NA
ATOM      3  N   UNL     1       3.469   2.658   2.350  0.00  0.00    +0.000 N 
ATOM      4  C   UNL     1       3.796   1.590   3.286  0.00  0.00    +0.000 C 
ATOM      5  C   UNL     1       3.666   0.348   2.425  0.00  0.00    +0.000 C 
ATOM      6  H   UNL     1       3.012   3.457   2.793  0.00  0.00    +0.000 HD
ENDROOT
BRANCH   1   7
ATOM      7  C   UNL     1       2.495   0.047   0.106  0.00  0.00    +0.000 C 
BRANCH   7   8
ATOM      8  O   UNL     1       1.601  -0.963   0.534  0.00  0.00    +0.000 OA
ATOM      9  H   UNL     1       0.755  -0.807   0.079  0.00  0.00    +0.000 HD
ENDBRANCH   7   8
ENDBRANCH   1   7
TORSDOF 2
