REMARK  Name = ligand_75678
REMARK  3 active torsions:
REMARK  status: ('A' for Active; 'I' for Inactive)
REMARK    1  A    between atoms: O_1  and  N_2
REMARK    2  A    between atoms: C_3  and  C_4
REMARK    3  A    between atoms: C_4  and  C_5
REMARK                            x       y       z     vdW  Elec       q    Type
REMARK                         _______ _______ _______ _____ _____    ______ ____
ROOT
ATOM      1  N   UNL     1       2.349  -0.422  -0.943  0.00  0.00    +0.000 NA
ATOM      2  C   UNL     1       3.023  -1.173  -0.136  0.00  0.00    +0.000 C 
ENDROOT
BRANCH   1   3
ATOM      3  O   UNL     1       0.986  -0.702  -0.796  0.00  0.00    +0.000 OA
ATOM      4  H   UNL     1       0.571  -0.047  -1.388  0.00  0.00    +0.000 HD
ENDBRANCH   1   3
BRANCH   2   5
ATOM      5  C   UNL     1       4.516  -1.071  -0.038  0.00  0.00    +0.000 C 
BRANCH   5   6
ATOM      6  C   UNL     1       5.206  -2.337  -0.433  0.00  0.00    +0.000 C 
ATOM      7  C   UNL     1       5.156  -3.593   0.402  0.00  0.00    +0.000 C 
ATOM      8  O   UNL     1       6.279  -2.704   0.447  0.00  0.00    +0.000 OA
ENDBRANCH   5   6
ENDBRANCH   2   5
TORSDOF 3
