REMARK  Name = ligand_75766
REMARK  2 active torsions:
REMARK  status: ('A' for Active; 'I' for Inactive)
REMARK    1  A    between atoms: C_1  and  C_2
REMARK    2  A    between atoms: C_3  and  C_4
REMARK                            x       y       z     vdW  Elec       q    Type
REMARK                         _______ _______ _______ _____ _____    ______ ____
ROOT
ATOM      1  C   UNL     1       0.929  -0.081  -0.083  0.00  0.00    +0.000 C 
ATOM      2  C   UNL     1       2.414   0.008  -0.087  0.00  0.00    +0.000 A 
ATOM      3  C   UNL     1       3.268   1.101  -0.084  0.00  0.00    +0.000 A 
ATOM      4  C   UNL     1       2.892   2.541  -0.073  0.00  0.00    +0.000 C 
ATOM      5  C   UNL     1       4.624   0.634  -0.093  0.00  0.00    +0.000 A 
ATOM      6  N   UNL     1       4.825  -0.679  -0.101  0.00  0.00    +0.000 NA
ATOM      7  S   UNL     1       3.350  -1.430  -0.099  0.00  0.00    +0.000 S 
ENDROOT
TORSDOF 0
