REMARK  Name = ligand_75795
REMARK  2 active torsions:
REMARK  status: ('A' for Active; 'I' for Inactive)
REMARK    1  A    between atoms: C_1  and  C_2
REMARK    2  A    between atoms: C_3  and  O_4
REMARK                            x       y       z     vdW  Elec       q    Type
REMARK                         _______ _______ _______ _____ _____    ______ ____
ROOT
ATOM      1  C   UNL     1       1.070  -0.108  -0.052  0.00  0.00    +0.000 C 
ATOM      2  C   UNL     1       2.549   0.035  -0.053  0.00  0.00    +0.000 A 
ATOM      3  C   UNL     1       3.291   1.210  -0.055  0.00  0.00    +0.000 A 
ATOM      4  S   UNL     1       4.963   0.833  -0.053  0.00  0.00    +0.000 S 
ATOM      5  C   UNL     1       4.579  -0.833  -0.051  0.00  0.00    +0.000 A 
ATOM      6  N   UNL     1       3.301  -1.133  -0.051  0.00  0.00    +0.000 NA
ENDROOT
BRANCH   3   7
ATOM      7  O   UNL     1       2.901   2.482  -0.059  0.00  0.00    +0.000 OA
ATOM      8  H   UNL     1       1.930   2.499  -0.064  0.00  0.00    +0.000 HD
ENDBRANCH   3   7
TORSDOF 1
