REMARK  Name = ligand_765
REMARK  0 active torsions:
REMARK  status: ('A' for Active; 'I' for Inactive)
REMARK                            x       y       z     vdW  Elec       q    Type
REMARK                         _______ _______ _______ _____ _____    ______ ____
ROOT
ATOM      1  C   UNL     1       2.076  -0.204  -0.042  0.00  0.00    +0.000 C 
ATOM      2  C   UNL     1       0.747  -0.819   0.247  0.00  0.00    +0.000 C 
ATOM      3  C   UNL     1      -0.431  -1.382  -0.489  0.00  0.00    +0.000 C 
ATOM      4  C   UNL     1      -1.656  -0.503  -0.215  0.00  0.00    +0.000 C 
ATOM      5  C   UNL     1      -1.541   0.736   0.322  0.00  0.00    +0.000 C 
ATOM      6  C   UNL     1      -0.171   1.374   0.581  0.00  0.00    +0.000 C 
ATOM      7  C   UNL     1       0.855   0.641  -0.226  0.00  0.00    +0.000 C 
ENDROOT
TORSDOF 0
