REMARK  Name = ligand_7809
REMARK  1 active torsions:
REMARK  status: ('A' for Active; 'I' for Inactive)
REMARK    1  A    between atoms: C_1  and  C_2
REMARK                            x       y       z     vdW  Elec       q    Type
REMARK                         _______ _______ _______ _____ _____    ______ ____
ROOT
ATOM      1  C   UNL     1       1.077  -0.018   0.052  0.00  0.00    +0.000 C 
ATOM      2  C   UNL     1       2.566  -0.073  -0.046  0.00  0.00    +0.000 C 
ATOM      3  C   UNL     1       3.247  -0.110  -1.198  0.00  0.00    +0.000 C 
ATOM      4  C   UNL     1       4.761  -0.078  -1.336  0.00  0.00    +0.000 C 
ATOM      5  N   UNL     1       5.017   0.157  -2.805  0.00  0.00    +0.000 NA
ATOM      6  C   UNL     1       3.820   0.112  -3.324  0.00  0.00    +0.000 C 
ATOM      7  N   UNL     1       2.788  -0.097  -2.477  0.00  0.00    +0.000 N 
ATOM      8  H   UNL     1       1.812   0.014  -2.704  0.00  0.00    +0.000 HD
ENDROOT
TORSDOF 0
