REMARK  Name = ligand_7897
REMARK  3 active torsions:
REMARK  status: ('A' for Active; 'I' for Inactive)
REMARK    1  A    between atoms: C_1  and  C_2
REMARK    2  A    between atoms: C_3  and  C_4
REMARK    3  A    between atoms: C_4  and  C_5
REMARK                            x       y       z     vdW  Elec       q    Type
REMARK                         _______ _______ _______ _____ _____    ______ ____
ROOT
ATOM      1  C   UNL     1       4.574  -0.159  -1.272  0.00  0.00    +0.000 C 
ENDROOT
BRANCH   1   2
ATOM      2  C   UNL     1       5.131  -0.301  -2.663  0.00  0.00    +0.000 C 
ATOM      3  C   UNL     1       4.954  -1.571  -3.455  0.00  0.00    +0.000 C 
ATOM      4  N   UNL     1       6.248  -1.222  -2.881  0.00  0.00    +0.000 NA
ATOM      5  H   UNL     1       6.882  -0.863  -3.596  0.00  0.00    +0.000 HD
ENDBRANCH   1   2
BRANCH   1   8
ATOM      6  C   UNL     1       0.830   0.764  -0.649  0.00  0.00    +0.000 C 
ATOM      7  C   UNL     1       2.318   0.844  -0.765  0.00  0.00    +0.000 C 
ATOM      8  C   UNL     1       3.072  -0.176  -1.201  0.00  0.00    +0.000 C 
ENDBRANCH   1   8
TORSDOF 2
