REMARK  Name = ligand_810383
REMARK  1 active torsions:
REMARK  status: ('A' for Active; 'I' for Inactive)
REMARK    1  A    between atoms: N_1  and  C_2
REMARK                            x       y       z     vdW  Elec       q    Type
REMARK                         _______ _______ _______ _____ _____    ______ ____
ROOT
ATOM      1  C   UNL     1       2.844   0.039   0.063  0.00  0.00    +0.000 C 
ATOM      2  C   UNL     1       3.594   1.052  -0.774  0.00  0.00    +0.000 C 
ATOM      3  C   UNL     1       4.141   0.645   0.563  0.00  0.00    +0.000 C 
ATOM      4  C   UNL     1       5.136  -0.505   0.781  0.00  0.00    +0.000 C 
ATOM      5  N   UNL     1       5.575  -1.372  -0.311  0.00  0.00    +0.000 NA
ATOM      6  C   UNL     1       4.349  -1.731   0.391  0.00  0.00    +0.000 C 
ATOM      7  C   UNL     1       3.023  -1.427  -0.204  0.00  0.00    +0.000 C 
ATOM      8  H   UNL     1       6.353  -1.961  -0.010  0.00  0.00    +0.000 HD
ENDROOT
BRANCH   1   9
ATOM      9  N   UNL     1       1.577   0.479   0.679  0.00  0.00    +0.000 NA
ATOM     10  H   UNL     1       1.169   1.243   0.140  0.00  0.00    +0.000 HD
ATOM     11  H   UNL     1       0.879  -0.265   0.652  0.00  0.00    +0.000 HD
ENDBRANCH   1   9
TORSDOF 1
