REMARK  Name = ligand_810534
REMARK  3 active torsions:
REMARK  status: ('A' for Active; 'I' for Inactive)
REMARK    1  A    between atoms: N_1  and  C_2
REMARK    2  A    between atoms: C_4  and  C_5
REMARK    3  A    between atoms: C_5  and  C_6
REMARK                            x       y       z     vdW  Elec       q    Type
REMARK                         _______ _______ _______ _____ _____    ______ ____
ROOT
ATOM      1  C   UNL     1       2.654  -1.481  -2.128  0.00  0.00    +0.000 C 
ENDROOT
BRANCH   1   2
ATOM      2  C   UNL     1       2.831  -2.976  -1.924  0.00  0.00    +0.000 C 
ATOM      3  N   UNL     1       3.420  -3.727  -2.892  0.00  0.00    +0.000 N 
ATOM      4  N   UNL     1       2.421  -3.572  -0.847  0.00  0.00    +0.000 NA
ATOM      5  H   UNL     1       3.313  -3.417  -3.849  0.00  0.00    +0.000 HD
ATOM      6  H   UNL     1       3.263  -4.722  -2.756  0.00  0.00    +0.000 HD
ATOM      7  H   UNL     1       2.013  -2.877  -0.213  0.00  0.00    +0.000 HD
ENDBRANCH   1   2
BRANCH   1  10
ATOM      8  C   UNL     1       2.539   0.033   0.030  0.00  0.00    +0.000 C 
ATOM      9  C   UNL     1       3.215   0.824  -1.055  0.00  0.00    +0.000 C 
ATOM     10  C   UNL     1       3.317  -0.679  -1.047  0.00  0.00    +0.000 C 
BRANCH   8  11
ATOM     11  N   UNL     1       1.080   0.015   0.051  0.00  0.00    +0.000 NA
ATOM     12  H   UNL     1       0.723   0.733   0.685  0.00  0.00    +0.000 HD
ATOM     13  H   UNL     1       0.718  -0.869   0.401  0.00  0.00    +0.000 HD
ENDBRANCH   8  11
ENDBRANCH   1  10
TORSDOF 3
