REMARK  Name = ligand_810986
REMARK  1 active torsions:
REMARK  status: ('A' for Active; 'I' for Inactive)
REMARK    1  A    between atoms: C_6  and  C_7
REMARK                            x       y       z     vdW  Elec       q    Type
REMARK                         _______ _______ _______ _____ _____    ______ ____
ROOT
ATOM      1  N   UNL     1       1.121  -0.291   0.957  0.00  0.00    +0.000 NA
ATOM      2  C   UNL     1       2.301  -0.049   0.524  0.00  0.00    +0.000 C 
ATOM      3  N   UNL     1       2.713  -0.304  -0.756  0.00  0.00    +0.000 N 
ATOM      4  C   UNL     1       4.032   0.314  -0.919  0.00  0.00    +0.000 C 
ATOM      5  C   UNL     1       4.435   0.475   0.530  0.00  0.00    +0.000 C 
ATOM      6  C   UNL     1       3.387   0.463   1.369  0.00  0.00    +0.000 C 
ATOM      7  H   UNL     1       0.571  -0.636   0.163  0.00  0.00    +0.000 HD
ATOM      8  H   UNL     1       2.764  -1.303  -0.924  0.00  0.00    +0.000 HD
ENDROOT
BRANCH   6   9
ATOM      9  C   UNL     1       3.811   1.664  -1.460  0.00  0.00    +0.000 C 
ATOM     10  C   UNL     1       3.464   2.788  -1.743  0.00  0.00    +0.000 C 
ENDBRANCH   6   9
TORSDOF 1
