REMARK  Name = ligand_811753
REMARK  5 active torsions:
REMARK  status: ('A' for Active; 'I' for Inactive)
REMARK    1  A    between atoms: N_1  and  C_2
REMARK    2  A    between atoms: C_2  and  C_3
REMARK    3  A    between atoms: C_3  and  C_4
REMARK    4  A    between atoms: C_4  and  C_5
REMARK    5  A    between atoms: N_6  and  N_7
REMARK                            x       y       z     vdW  Elec       q    Type
REMARK                         _______ _______ _______ _____ _____    ______ ____
ROOT
ATOM      1  C   UNL     1       3.001   1.127   0.898  0.00  0.00    +0.000 C 
ENDROOT
BRANCH   1   2
ATOM      2  C   UNL     1       2.410   2.469   0.462  0.00  0.00    +0.000 C 
BRANCH   2   3
ATOM      3  N   UNL     1       2.857   2.837  -0.876  0.00  0.00    +0.000 NA
ATOM      4  H   UNL     1       2.425   3.720  -1.145  0.00  0.00    +0.000 HD
ATOM      5  H   UNL     1       2.524   2.145  -1.548  0.00  0.00    +0.000 HD
ENDBRANCH   2   3
ENDBRANCH   1   2
BRANCH   1   6
ATOM      6  C   UNL     1       4.529   1.087   0.917  0.00  0.00    +0.000 C 
BRANCH   6   7
ATOM      7  C   UNL     1       5.081   2.108   1.871  0.00  0.00    +0.000 C 
ATOM      8  N   UNL     1       5.320   1.794   3.103  0.00  0.00    +0.000 NA
BRANCH   8   9
ATOM      9  N   UNL     1       5.783   2.901   3.810  0.00  0.00    +0.000 NA
ATOM     10  C   UNL     1       6.009   2.587   5.041  0.00  0.00    +0.000 C 
ENDBRANCH   8   9
ENDBRANCH   6   7
ENDBRANCH   1   6
TORSDOF 5
