REMARK  Name = ligand_811796
REMARK  4 active torsions:
REMARK  status: ('A' for Active; 'I' for Inactive)
REMARK    1  A    between atoms: N_1  and  C_2
REMARK    2  A    between atoms: C_2  and  C_3
REMARK    3  A    between atoms: C_2  and  C_7
REMARK    4  A    between atoms: C_3  and  C_4
REMARK                            x       y       z     vdW  Elec       q    Type
REMARK                         _______ _______ _______ _____ _____    ______ ____
ROOT
ATOM      1  C   UNL     1       2.940  -1.502   0.559  0.00  0.00    +0.000 C 
ENDROOT
BRANCH   1   2
ATOM      2  C   UNL     1       2.381  -1.749   1.943  0.00  0.00    +0.000 C 
ATOM      3  N   UNL     1       3.073  -1.350   3.043  0.00  0.00    +0.000 N 
ATOM      4  N   UNL     1       1.244  -2.342   2.117  0.00  0.00    +0.000 NA
ATOM      5  H   UNL     1       4.083  -1.343   2.987  0.00  0.00    +0.000 HD
ATOM      6  H   UNL     1       2.715  -1.775   3.894  0.00  0.00    +0.000 HD
ATOM      7  H   UNL     1       0.831  -2.599   1.215  0.00  0.00    +0.000 HD
ENDBRANCH   1   2
BRANCH   1   8
ATOM      8  C   UNL     1       2.493  -0.147  -0.018  0.00  0.00    +0.000 C 
BRANCH   8   9
ATOM      9  N   UNL     1       1.039  -0.058  -0.186  0.00  0.00    +0.000 NA
ATOM     10  H   UNL     1       0.589  -0.228   0.717  0.00  0.00    +0.000 HD
ATOM     11  H   UNL     1       0.722  -0.799  -0.807  0.00  0.00    +0.000 HD
ENDBRANCH   8   9
BRANCH   8  12
ATOM     12  C   UNL     1       3.096   0.197  -1.358  0.00  0.00    +0.000 C 
ATOM     13  C   UNL     1       3.885  -0.565  -2.129  0.00  0.00    +0.000 C 
ENDBRANCH   8  12
ENDBRANCH   1   8
TORSDOF 4
