REMARK  Name = ligand_811998
REMARK  3 active torsions:
REMARK  status: ('A' for Active; 'I' for Inactive)
REMARK    1  A    between atoms: C_2  and  C_4
REMARK    2  A    between atoms: C_5  and  C_6
REMARK    3  A    between atoms: C_6  and  C_7
REMARK                            x       y       z     vdW  Elec       q    Type
REMARK                         _______ _______ _______ _____ _____    ______ ____
ROOT
ATOM      1  N   UNL     1       3.209   1.176  -0.245  0.00  0.00    +0.000 N 
ATOM      2  C   UNL     1       2.626  -0.021   0.046  0.00  0.00    +0.000 C 
ATOM      3  N   UNL     1       1.401  -0.060   0.458  0.00  0.00    +0.000 NA
ATOM      4  H   UNL     1       2.573   1.942  -0.426  0.00  0.00    +0.000 HD
ATOM      5  H   UNL     1       3.951   1.134  -0.936  0.00  0.00    +0.000 HD
ATOM      6  H   UNL     1       1.044   0.890   0.561  0.00  0.00    +0.000 HD
ENDROOT
BRANCH   2   7
ATOM      7  C   UNL     1       3.333  -1.319  -0.106  0.00  0.00    +0.000 C 
ATOM      8  C   UNL     1       4.671  -1.391  -0.163  0.00  0.00    +0.000 C 
BRANCH   8   9
ATOM      9  C   UNL     1       5.430  -2.675  -0.270  0.00  0.00    +0.000 C 
BRANCH   9  10
ATOM     10  C   UNL     1       6.314  -2.629  -1.505  0.00  0.00    +0.000 C 
ATOM     11  C   UNL     1       7.072  -2.589  -2.565  0.00  0.00    +0.000 C 
ENDBRANCH   9  10
ENDBRANCH   8   9
ENDBRANCH   2   7
TORSDOF 3
