REMARK  Name = ligand_812753
REMARK  1 active torsions:
REMARK  status: ('A' for Active; 'I' for Inactive)
REMARK    1  A    between atoms: C_1  and  C_2
REMARK                            x       y       z     vdW  Elec       q    Type
REMARK                         _______ _______ _______ _____ _____    ______ ____
ROOT
ATOM      1  C   UNL     1       0.989  -0.042  -0.092  0.00  0.00    +0.000 C 
ATOM      2  C   UNL     1       2.467   0.177   0.046  0.00  0.00    +0.000 C 
ATOM      3  C   UNL     1       3.349  -0.676   1.027  0.00  0.00    +0.000 C 
ATOM      4  C   UNL     1       4.383  -0.193  -0.057  0.00  0.00    +0.000 C 
ATOM      5  O   UNL     1       3.273  -0.511  -1.034  0.00  0.00    +0.000 OA
ATOM      6  C   UNL     1       4.423   1.282   0.074  0.00  0.00    +0.000 C 
ATOM      7  C   UNL     1       5.519   2.034   0.156  0.00  0.00    +0.000 C 
ATOM      8  C   UNL     1       2.971   1.640   0.083  0.00  0.00    +0.000 C 
ENDROOT
TORSDOF 0
