REMARK  Name = ligand_813156
REMARK  5 active torsions:
REMARK  status: ('A' for Active; 'I' for Inactive)
REMARK    1  A    between atoms: C_1  and  C_2
REMARK    2  A    between atoms: C_3  and  C_4
REMARK    3  A    between atoms: C_5  and  O_6
REMARK    4  A    between atoms: C_5  and  C_7
REMARK    5  A    between atoms: C_7  and  O_8
REMARK                            x       y       z     vdW  Elec       q    Type
REMARK                         _______ _______ _______ _____ _____    ______ ____
ROOT
ATOM      1  C   UNL     1       1.007   0.077  -0.017  0.00  0.00    +0.000 C 
ATOM      2  C   UNL     1       2.493  -0.033  -0.105  0.00  0.00    +0.000 C 
ATOM      3  C   UNL     1       3.235   0.770  -1.147  0.00  0.00    +0.000 C 
ATOM      4  C   UNL     1       4.477   1.507  -0.774  0.00  0.00    +0.000 C 
ATOM      5  C   UNL     1       3.193  -0.739  -1.251  0.00  0.00    +0.000 C 
ENDROOT
BRANCH   5   6
ATOM      6  O   UNL     1       4.416  -1.436  -0.924  0.00  0.00    +0.000 OA
ATOM      7  H   UNL     1       4.743  -1.202  -0.039  0.00  0.00    +0.000 HD
ENDBRANCH   5   6
BRANCH   5   8
ATOM      8  C   UNL     1       2.431  -1.399  -2.373  0.00  0.00    +0.000 C 
BRANCH   8   9
ATOM      9  O   UNL     1       2.529  -2.814  -2.228  0.00  0.00    +0.000 OA
ATOM     10  H   UNL     1       3.440  -2.962  -1.909  0.00  0.00    +0.000 HD
ENDBRANCH   8   9
ENDBRANCH   5   8
TORSDOF 3
