REMARK  Name = ligand_81317
REMARK  5 active torsions:
REMARK  status: ('A' for Active; 'I' for Inactive)
REMARK    1  A    between atoms: C_1  and  C_2
REMARK    2  A    between atoms: C_2  and  C_3
REMARK    3  A    between atoms: C_3  and  C_5
REMARK    4  A    between atoms: C_5  and  C_6
REMARK    5  A    between atoms: C_6  and  C_7
REMARK                            x       y       z     vdW  Elec       q    Type
REMARK                         _______ _______ _______ _____ _____    ______ ____
ROOT
ATOM      1  C   UNL     1       2.731  -0.924  -1.126  0.00  0.00    +0.000 C 
ATOM      2  C   UNL     1       1.715  -1.539  -1.758  0.00  0.00    +0.000 C 
ENDROOT
BRANCH   1   4
ATOM      3  C   UNL     1       3.023   1.472  -0.312  0.00  0.00    +0.000 C 
ATOM      4  C   UNL     1       2.466   0.085  -0.029  0.00  0.00    +0.000 C 
ENDBRANCH   1   4
BRANCH   1   5
ATOM      5  C   UNL     1       4.177  -1.301  -1.395  0.00  0.00    +0.000 C 
BRANCH   5   6
ATOM      6  C   UNL     1       4.886  -0.488  -2.462  0.00  0.00    +0.000 C 
ATOM      7  C   UNL     1       6.367  -0.289  -2.273  0.00  0.00    +0.000 C 
ATOM      8  C   UNL     1       4.291   0.030  -3.552  0.00  0.00    +0.000 C 
ENDBRANCH   5   6
ENDBRANCH   1   5
TORSDOF 3
