REMARK  Name = ligand_813620
REMARK  3 active torsions:
REMARK  status: ('A' for Active; 'I' for Inactive)
REMARK    1  A    between atoms: C_1  and  C_2
REMARK    2  A    between atoms: C_4  and  C_5
REMARK    3  A    between atoms: C_5  and  O_6
REMARK                            x       y       z     vdW  Elec       q    Type
REMARK                         _______ _______ _______ _____ _____    ______ ____
ROOT
ATOM      1  C   UNL     1       1.060   0.136   0.012  0.00  0.00    +0.000 C 
ATOM      2  C   UNL     1       2.542   0.048   0.005  0.00  0.00    +0.000 C 
ATOM      3  C   UNL     1       3.311  -1.054  -0.015  0.00  0.00    +0.000 C 
ATOM      4  C   UNL     1       4.770  -0.663  -0.066  0.00  0.00    +0.000 C 
ATOM      5  C   UNL     1       4.676   0.841  -0.037  0.00  0.00    +0.000 C 
ATOM      6  C   UNL     1       3.389   1.219   0.001  0.00  0.00    +0.000 C 
ENDROOT
BRANCH   4   7
ATOM      7  C   UNL     1       5.488  -1.208  -1.314  0.00  0.00    +0.000 C 
BRANCH   7   8
ATOM      8  O   UNL     1       4.931  -0.747  -2.545  0.00  0.00    +0.000 OA
ATOM      9  H   UNL     1       3.969  -0.668  -2.421  0.00  0.00    +0.000 HD
ENDBRANCH   7   8
ENDBRANCH   4   7
TORSDOF 2
