REMARK  Name = ligand_813793
REMARK  2 active torsions:
REMARK  status: ('A' for Active; 'I' for Inactive)
REMARK    1  A    between atoms: C_1  and  C_2
REMARK    2  A    between atoms: C_2  and  C_3
REMARK                            x       y       z     vdW  Elec       q    Type
REMARK                         _______ _______ _______ _____ _____    ______ ____
ROOT
ATOM      1  C   UNL     1       0.906  -0.121   0.026  0.00  0.00    +0.000 C 
ATOM      2  C   UNL     1       2.436  -0.051  -0.005  0.00  0.00    +0.000 C 
ATOM      3  C   UNL     1       2.912   0.059  -1.462  0.00  0.00    +0.000 C 
ATOM      4  C   UNL     1       3.055  -1.278   0.674  0.00  0.00    +0.000 C 
ATOM      5  O   UNL     1       4.324  -0.894   1.230  0.00  0.00    +0.000 OA
ATOM      6  C   UNL     1       4.402   0.537   1.260  0.00  0.00    +0.000 C 
ATOM      7  C   UNL     1       3.058   1.036   0.829  0.00  0.00    +0.000 C 
ATOM      8  C   UNL     1       2.512   2.192   1.226  0.00  0.00    +0.000 C 
ENDROOT
TORSDOF 0
