REMARK  Name = ligand_813809
REMARK  2 active torsions:
REMARK  status: ('A' for Active; 'I' for Inactive)
REMARK    1  A    between atoms: C_1  and  C_2
REMARK    2  A    between atoms: C_7  and  O_8
REMARK                            x       y       z     vdW  Elec       q    Type
REMARK                         _______ _______ _______ _____ _____    ______ ____
ROOT
ATOM      1  C   UNL     1       1.080   0.102   0.151  0.00  0.00    +0.000 C 
ATOM      2  C   UNL     1       2.565   0.050   0.052  0.00  0.00    +0.000 C 
ATOM      3  C   UNL     1       3.296  -1.066  -0.062  0.00  0.00    +0.000 C 
ATOM      4  C   UNL     1       4.695  -0.626  -0.138  0.00  0.00    +0.000 C 
ATOM      5  O   UNL     1       5.629  -1.411  -0.185  0.00  0.00    +0.000 OA
ATOM      6  C   UNL     1       4.811   0.867  -0.190  0.00  0.00    +0.000 C 
ATOM      7  C   UNL     1       3.383   1.307   0.115  0.00  0.00    +0.000 C 
ENDROOT
BRANCH   7   8
ATOM      8  O   UNL     1       2.925   2.244  -0.845  0.00  0.00    +0.000 OA
ATOM      9  H   UNL     1       2.836   1.785  -1.698  0.00  0.00    +0.000 HD
ENDBRANCH   7   8
TORSDOF 1
