REMARK  Name = ligand_814482
REMARK  0 active torsions:
REMARK  status: ('A' for Active; 'I' for Inactive)
REMARK                            x       y       z     vdW  Elec       q    Type
REMARK                         _______ _______ _______ _____ _____    ______ ____
ROOT
ATOM      1  C   UNL     1       1.045   0.049  -0.462  0.00  0.00    +0.000 C 
ATOM      2  C   UNL     1       2.183   0.317   0.205  0.00  0.00    +0.000 C 
ATOM      3  O   UNL     1       2.637   1.645   0.147  0.00  0.00    +0.000 OA
ATOM      4  C   UNL     1       3.402   2.119   1.189  0.00  0.00    +0.000 C 
ATOM      5  C   UNL     1       3.930   1.345   2.146  0.00  0.00    +0.000 C 
ATOM      6  C   UNL     1       3.794  -0.115   2.121  0.00  0.00    +0.000 C 
ATOM      7  O   UNL     1       4.313  -0.882   1.024  0.00  0.00    +0.000 OA
ATOM      8  C   UNL     1       2.891  -0.679   1.040  0.00  0.00    +0.000 C 
ENDROOT
TORSDOF 0
