REMARK  Name = ligand_814726
REMARK  5 active torsions:
REMARK  status: ('A' for Active; 'I' for Inactive)
REMARK    1  A    between atoms: C_1  and  C_2
REMARK    2  A    between atoms: C_2  and  C_3
REMARK    3  A    between atoms: C_5  and  C_6
REMARK    4  A    between atoms: C_6  and  C_7
REMARK    5  A    between atoms: C_6  and  O_8
REMARK                            x       y       z     vdW  Elec       q    Type
REMARK                         _______ _______ _______ _____ _____    ______ ____
ROOT
ATOM      1  C   UNL     1       3.196   0.940   0.733  0.00  0.00    +0.000 C 
ATOM      2  C   UNL     1       3.174   2.432   0.938  0.00  0.00    +0.000 C 
ATOM      3  C   UNL     1       4.488   1.754   0.594  0.00  0.00    +0.000 C 
ENDROOT
BRANCH   1   5
ATOM      4  C   UNL     1       0.989   0.544  -0.368  0.00  0.00    +0.000 C 
ATOM      5  C   UNL     1       2.487   0.285  -0.413  0.00  0.00    +0.000 C 
ENDBRANCH   1   5
BRANCH   3   6
ATOM      6  C   UNL     1       5.507   1.521   1.684  0.00  0.00    +0.000 C 
ATOM      7  C   UNL     1       5.103   2.117  -0.740  0.00  0.00    +0.000 C 
BRANCH   6   8
ATOM      8  O   UNL     1       5.448   3.497  -0.736  0.00  0.00    +0.000 OA
ATOM      9  H   UNL     1       4.616   3.992  -0.685  0.00  0.00    +0.000 HD
ENDBRANCH   6   8
ENDBRANCH   3   6
TORSDOF 3
