REMARK  Name = ligand_814802
REMARK  1 active torsions:
REMARK  status: ('A' for Active; 'I' for Inactive)
REMARK    1  A    between atoms: C_2  and  C_3
REMARK                            x       y       z     vdW  Elec       q    Type
REMARK                         _______ _______ _______ _____ _____    ______ ____
ROOT
ATOM      1  C   UNL     1       3.055  -1.008   0.606  0.00  0.00    +0.000 C 
ATOM      2  C   UNL     1       2.680  -2.490   0.508  0.00  0.00    +0.000 C 
ATOM      3  C   UNL     1       3.499  -3.076  -0.637  0.00  0.00    +0.000 C 
ATOM      4  C   UNL     1       4.797  -2.285  -0.688  0.00  0.00    +0.000 C 
ATOM      5  C   UNL     1       4.433  -0.986  -0.024  0.00  0.00    +0.000 C 
ATOM      6  O   UNL     1       5.190  -0.019   0.007  0.00  0.00    +0.000 OA
ENDROOT
BRANCH   1   8
ATOM      7  C   UNL     1       1.083  -0.185  -0.809  0.00  0.00    +0.000 C 
ATOM      8  C   UNL     1       2.189   0.014  -0.082  0.00  0.00    +0.000 C 
ENDBRANCH   1   8
TORSDOF 1
