REMARK  Name = ligand_815004
REMARK  3 active torsions:
REMARK  status: ('A' for Active; 'I' for Inactive)
REMARK    1  A    between atoms: C_1  and  C_2
REMARK    2  A    between atoms: C_2  and  C_3
REMARK    3  A    between atoms: C_5  and  O_6
REMARK                            x       y       z     vdW  Elec       q    Type
REMARK                         _______ _______ _______ _____ _____    ______ ____
ROOT
ATOM      1  C   UNL     1       3.012  -1.586   0.181  0.00  0.00    +0.000 C 
ATOM      2  C   UNL     1       2.281  -2.698   0.101  0.00  0.00    +0.000 C 
ATOM      3  C   UNL     1       3.115  -3.852   0.499  0.00  0.00    +0.000 C 
ATOM      4  C   UNL     1       4.506  -3.215   0.504  0.00  0.00    +0.000 C 
ATOM      5  O   UNL     1       4.326  -1.781   0.608  0.00  0.00    +0.000 OA
ENDROOT
BRANCH   1   7
ATOM      6  C   UNL     1       3.311   0.519  -1.162  0.00  0.00    +0.000 C 
ATOM      7  C   UNL     1       2.559  -0.178  -0.037  0.00  0.00    +0.000 C 
ENDBRANCH   1   7
BRANCH   3   8
ATOM      8  O   UNL     1       2.716  -4.273   1.797  0.00  0.00    +0.000 OA
ATOM      9  H   UNL     1       2.744  -3.485   2.369  0.00  0.00    +0.000 HD
ENDBRANCH   3   8
TORSDOF 2
