REMARK  Name = ligand_815434
REMARK  5 active torsions:
REMARK  status: ('A' for Active; 'I' for Inactive)
REMARK    1  A    between atoms: C_1  and  C_2
REMARK    2  A    between atoms: C_2  and  C_3
REMARK    3  A    between atoms: C_2  and  C_4
REMARK    4  A    between atoms: C_5  and  O_6
REMARK    5  A    between atoms: C_7  and  O_8
REMARK                            x       y       z     vdW  Elec       q    Type
REMARK                         _______ _______ _______ _____ _____    ______ ____
ROOT
ATOM      1  C   UNL     1       3.089   1.251  -0.668  0.00  0.00    +0.000 C 
ATOM      2  C   UNL     1       4.578   1.491  -0.721  0.00  0.00    +0.000 C 
ATOM      3  C   UNL     1       3.696   2.418   0.077  0.00  0.00    +0.000 C 
ENDROOT
BRANCH   1   5
ATOM      4  C   UNL     1       1.044   0.052   0.139  0.00  0.00    +0.000 C 
ATOM      5  C   UNL     1       2.570   0.018   0.036  0.00  0.00    +0.000 C 
ATOM      6  C   UNL     1       3.013  -1.241  -0.712  0.00  0.00    +0.000 C 
ENDBRANCH   1   5
BRANCH   2   7
ATOM      7  O   UNL     1       5.096   1.996  -1.959  0.00  0.00    +0.000 OA
ATOM      8  H   UNL     1       4.437   2.498  -2.465  0.00  0.00    +0.000 HD
ENDBRANCH   2   7
BRANCH   3   9
ATOM      9  O   UNL     1       3.777   2.298   1.505  0.00  0.00    +0.000 OA
ATOM     10  H   UNL     1       4.682   2.097   1.795  0.00  0.00    +0.000 HD
ENDBRANCH   3   9
TORSDOF 3
