REMARK  Name = ligand_8157
REMARK  4 active torsions:
REMARK  status: ('A' for Active; 'I' for Inactive)
REMARK    1  A    between atoms: C_1  and  C_2
REMARK    2  A    between atoms: C_2  and  C_3
REMARK    3  A    between atoms: C_3  and  C_4
REMARK    4  A    between atoms: C_6  and  C_7
REMARK                            x       y       z     vdW  Elec       q    Type
REMARK                         _______ _______ _______ _____ _____    ______ ____
ROOT
ATOM      1  C   UNL     1       4.623   1.133   0.352  0.00  0.00    +0.000 C 
ATOM      2  C   UNL     1       5.783   0.792  -0.581  0.00  0.00    +0.000 C 
ATOM      3  C   UNL     1       5.355   1.191  -1.989  0.00  0.00    +0.000 C 
ATOM      4  C   UNL     1       4.045   1.969  -1.838  0.00  0.00    +0.000 C 
ATOM      5  C   UNL     1       4.301   3.474  -1.727  0.00  0.00    +0.000 C 
ENDROOT
BRANCH   1   6
ATOM      6  C   UNL     1       3.414   1.409  -0.551  0.00  0.00    +0.000 C 
BRANCH   6   8
ATOM      7  C   UNL     1       1.354   0.342  -1.627  0.00  0.00    +0.000 C 
ATOM      8  C   UNL     1       2.581   0.130  -0.751  0.00  0.00    +0.000 C 
ENDBRANCH   6   8
ENDBRANCH   1   6
TORSDOF 2
