REMARK  Name = ligand_816826
REMARK  5 active torsions:
REMARK  status: ('A' for Active; 'I' for Inactive)
REMARK    1  A    between atoms: C_1  and  C_2
REMARK    2  A    between atoms: C_2  and  C_3
REMARK    3  A    between atoms: C_3  and  C_4
REMARK    4  A    between atoms: C_4  and  C_6
REMARK    5  A    between atoms: C_6  and  C_7
REMARK                            x       y       z     vdW  Elec       q    Type
REMARK                         _______ _______ _______ _____ _____    ______ ____
ROOT
ATOM      1  C   UNL     1       4.630   0.328  -1.280  0.00  0.00    +0.000 C 
ATOM      2  O   UNL     1       5.276   0.170  -0.242  0.00  0.00    +0.000 OA
ENDROOT
BRANCH   1   3
ATOM      3  C   UNL     1       3.109   0.311  -1.307  0.00  0.00    +0.000 C 
BRANCH   3   5
ATOM      4  C   UNL     1       0.994   0.061   0.047  0.00  0.00    +0.000 C 
ATOM      5  C   UNL     1       2.513   0.058   0.076  0.00  0.00    +0.000 C 
ENDBRANCH   3   5
ENDBRANCH   1   3
BRANCH   1   6
ATOM      6  C   UNL     1       5.339   0.532  -2.591  0.00  0.00    +0.000 C 
BRANCH   6   7
ATOM      7  C   UNL     1       5.026   1.858  -3.209  0.00  0.00    +0.000 C 
ATOM      8  O   UNL     1       4.496   1.976  -4.309  0.00  0.00    +0.000 OA
ENDBRANCH   6   7
ENDBRANCH   1   6
TORSDOF 4
