REMARK  Name = ligand_816861
REMARK  5 active torsions:
REMARK  status: ('A' for Active; 'I' for Inactive)
REMARK    1  A    between atoms: C_1  and  C_2
REMARK    2  A    between atoms: C_2  and  C_3
REMARK    3  A    between atoms: C_3  and  C_4
REMARK    4  A    between atoms: C_4  and  O_6
REMARK    5  A    between atoms: O_6  and  C_7
REMARK                            x       y       z     vdW  Elec       q    Type
REMARK                         _______ _______ _______ _____ _____    ______ ____
ROOT
ATOM      1  C   UNL     1       4.700   1.387  -0.520  0.00  0.00    +0.000 C 
ATOM      2  O   UNL     1       5.326   0.614  -1.237  0.00  0.00    +0.000 OA
ENDROOT
BRANCH   1   3
ATOM      3  C   UNL     1       3.191   1.439  -0.467  0.00  0.00    +0.000 C 
BRANCH   3   5
ATOM      4  C   UNL     1       2.983  -0.322   1.348  0.00  0.00    +0.000 C 
ATOM      5  C   UNL     1       2.596   0.093  -0.065  0.00  0.00    +0.000 C 
ENDBRANCH   3   5
ENDBRANCH   1   3
BRANCH   1   6
ATOM      6  O   UNL     1       5.228   2.304   0.354  0.00  0.00    +0.000 OA
BRANCH   6   7
ATOM      7  C   UNL     1       6.619   2.325   0.446  0.00  0.00    +0.000 C 
ATOM      8  C   UNL     1       7.254   3.171   1.259  0.00  0.00    +0.000 C 
ENDBRANCH   6   7
ENDBRANCH   1   6
TORSDOF 4
