REMARK  Name = ligand_816805
REMARK  4 active torsions:
REMARK  status: ('A' for Active; 'I' for Inactive)
REMARK    1  A    between atoms: C_1  and  C_2
REMARK    2  A    between atoms: C_2  and  C_3
REMARK    3  A    between atoms: C_3  and  C_4
REMARK    4  A    between atoms: C_6  and  C_7
REMARK                            x       y       z     vdW  Elec       q    Type
REMARK                         _______ _______ _______ _____ _____    ______ ____
ROOT
ATOM      1  C   UNL     1       3.061   0.291   1.543  0.00  0.00    +0.000 C 
ATOM      2  C   UNL     1       4.385   0.310   1.780  0.00  0.00    +0.000 C 
ENDROOT
BRANCH   1   4
ATOM      3  C   UNL     1       1.695  -1.229   0.031  0.00  0.00    +0.000 C 
ATOM      4  C   UNL     1       2.516   0.049   0.153  0.00  0.00    +0.000 C 
ENDBRANCH   1   4
BRANCH   1   5
ATOM      5  C   UNL     1       2.055   0.562   2.606  0.00  0.00    +0.000 C 
ATOM      6  O   UNL     1       0.877   0.789   2.357  0.00  0.00    +0.000 OA
ENDBRANCH   1   5
BRANCH   2   7
ATOM      7  C   UNL     1       5.067   0.627   3.053  0.00  0.00    +0.000 C 
ATOM      8  O   UNL     1       6.290   0.608   3.129  0.00  0.00    +0.000 OA
ENDBRANCH   2   7
TORSDOF 3
