REMARK  Name = ligand_817178
REMARK  7 active torsions:
REMARK  status: ('A' for Active; 'I' for Inactive)
REMARK    1  A    between atoms: C_1  and  C_2
REMARK    2  A    between atoms: C_2  and  C_3
REMARK    3  A    between atoms: C_2  and  C_5
REMARK    4  A    between atoms: C_3  and  O_4
REMARK    5  A    between atoms: C_5  and  C_6
REMARK    6  A    between atoms: C_6  and  C_7
REMARK    7  A    between atoms: C_7  and  O_8
REMARK                            x       y       z     vdW  Elec       q    Type
REMARK                         _______ _______ _______ _____ _____    ______ ____
ROOT
ATOM      1  C   UNL     1       1.002  -0.038  -0.050  0.00  0.00    +0.000 C 
ATOM      2  C   UNL     1       2.535  -0.050  -0.006  0.00  0.00    +0.000 C 
ENDROOT
BRANCH   2   3
ATOM      3  C   UNL     1       3.053   1.114   0.853  0.00  0.00    +0.000 C 
BRANCH   3   4
ATOM      4  O   UNL     1       2.625   2.366   0.331  0.00  0.00    +0.000 OA
ATOM      5  H   UNL     1       2.961   2.435  -0.579  0.00  0.00    +0.000 HD
ENDBRANCH   3   4
ENDBRANCH   2   3
BRANCH   2   6
ATOM      6  C   UNL     1       3.093  -1.382   0.534  0.00  0.00    +0.000 C 
BRANCH   6   7
ATOM      7  C   UNL     1       2.736  -2.589  -0.335  0.00  0.00    +0.000 C 
BRANCH   7   8
ATOM      8  C   UNL     1       3.325  -3.882   0.219  0.00  0.00    +0.000 C 
BRANCH   8   9
ATOM      9  O   UNL     1       2.948  -4.972  -0.613  0.00  0.00    +0.000 OA
ATOM     10  H   UNL     1       1.978  -5.022  -0.611  0.00  0.00    +0.000 HD
ENDBRANCH   8   9
ENDBRANCH   7   8
ENDBRANCH   6   7
ENDBRANCH   2   6
TORSDOF 6
