REMARK  Name = ligand_817231
REMARK  5 active torsions:
REMARK  status: ('A' for Active; 'I' for Inactive)
REMARK    1  A    between atoms: C_1  and  C_2
REMARK    2  A    between atoms: C_2  and  C_3
REMARK    3  A    between atoms: C_3  and  O_4
REMARK    4  A    between atoms: O_4  and  C_5
REMARK    5  A    between atoms: C_6  and  C_7
REMARK                            x       y       z     vdW  Elec       q    Type
REMARK                         _______ _______ _______ _____ _____    ______ ____
ROOT
ATOM      1  O   UNL     1       4.584   1.072   0.751  0.00  0.00    +0.000 OA
ENDROOT
BRANCH   1   2
ATOM      2  C   UNL     1       5.231   2.081   1.414  0.00  0.00    +0.000 C 
ATOM      3  C   UNL     1       6.435   2.492   1.009  0.00  0.00    +0.000 C 
BRANCH   3   4
ATOM      4  C   UNL     1       7.166   3.563   1.708  0.00  0.00    +0.000 C 
ATOM      5  O   UNL     1       8.262   3.942   1.324  0.00  0.00    +0.000 OA
ENDBRANCH   3   4
ENDBRANCH   1   2
BRANCH   1   6
ATOM      6  C   UNL     1       3.156   1.158   0.805  0.00  0.00    +0.000 C 
BRANCH   6   8
ATOM      7  C   UNL     1       1.084  -0.048  -0.012  0.00  0.00    +0.000 C 
ATOM      8  C   UNL     1       2.601  -0.021   0.008  0.00  0.00    +0.000 C 
ENDBRANCH   6   8
ENDBRANCH   1   6
TORSDOF 4
