REMARK  Name = ligand_817562
REMARK  4 active torsions:
REMARK  status: ('A' for Active; 'I' for Inactive)
REMARK    1  A    between atoms: C_2  and  O_3
REMARK    2  A    between atoms: O_3  and  C_4
REMARK    3  A    between atoms: C_4  and  C_5
REMARK    4  A    between atoms: C_6  and  C_7
REMARK                            x       y       z     vdW  Elec       q    Type
REMARK                         _______ _______ _______ _____ _____    ______ ____
ROOT
ATOM      1  C   UNL     1       4.462   0.483   1.234  0.00  0.00    +0.000 C 
ENDROOT
BRANCH   1   2
ATOM      2  C   UNL     1       4.969   1.012   2.566  0.00  0.00    +0.000 C 
ATOM      3  C   UNL     1       5.403   1.466   3.709  0.00  0.00    +0.000 C 
BRANCH   3   4
ATOM      4  C   UNL     1       5.918   2.000   5.054  0.00  0.00    +0.000 C 
ATOM      5  C   UNL     1       6.315   2.418   6.106  0.00  0.00    +0.000 C 
ENDBRANCH   3   4
ENDBRANCH   1   2
BRANCH   1   6
ATOM      6  O   UNL     1       3.030   0.507   1.294  0.00  0.00    +0.000 OA
BRANCH   6   8
ATOM      7  C   UNL     1       1.053   0.041   0.119  0.00  0.00    +0.000 C 
ATOM      8  C   UNL     1       2.385   0.063   0.176  0.00  0.00    +0.000 C 
ENDBRANCH   6   8
ENDBRANCH   1   6
TORSDOF 4
