REMARK  Name = ligand_818090
REMARK  3 active torsions:
REMARK  status: ('A' for Active; 'I' for Inactive)
REMARK    1  A    between atoms: C_1  and  O_2
REMARK    2  A    between atoms: O_2  and  C_3
REMARK    3  A    between atoms: C_5  and  C_6
REMARK                            x       y       z     vdW  Elec       q    Type
REMARK                         _______ _______ _______ _____ _____    ______ ____
ROOT
ATOM      1  C   UNL     1       2.776  -0.766  -1.201  0.00  0.00    +0.000 C 
ATOM      2  C   UNL     1       2.361  -2.233  -1.372  0.00  0.00    +0.000 C 
ATOM      3  C   UNL     1       3.456  -3.047  -0.670  0.00  0.00    +0.000 C 
ATOM      4  C   UNL     1       3.647  -4.417  -1.300  0.00  0.00    +0.000 C 
ATOM      5  C   UNL     1       4.645  -2.143  -0.808  0.00  0.00    +0.000 C 
ATOM      6  C   UNL     1       4.264  -0.889  -1.087  0.00  0.00    +0.000 C 
ENDROOT
BRANCH   1   8
ATOM      7  C   UNL     1       0.905  -0.013   0.062  0.00  0.00    +0.000 C 
ATOM      8  O   UNL     1       2.315  -0.162   0.002  0.00  0.00    +0.000 OA
ENDBRANCH   1   8
TORSDOF 1
