REMARK  Name = ligand_818536
REMARK  5 active torsions:
REMARK  status: ('A' for Active; 'I' for Inactive)
REMARK    1  A    between atoms: C_1  and  O_2
REMARK    2  A    between atoms: O_2  and  C_3
REMARK    3  A    between atoms: C_3  and  C_4
REMARK    4  A    between atoms: C_4  and  C_6
REMARK    5  A    between atoms: C_6  and  C_7
REMARK                            x       y       z     vdW  Elec       q    Type
REMARK                         _______ _______ _______ _____ _____    ______ ____
ROOT
ATOM      1  C   UNL     1       4.432   1.116  -0.530  0.00  0.00    +0.000 C 
ATOM      2  C   UNL     1       5.071   0.014  -0.092  0.00  0.00    +0.000 C 
ENDROOT
BRANCH   1   3
ATOM      3  C   UNL     1       2.928   1.188  -0.569  0.00  0.00    +0.000 C 
BRANCH   3   5
ATOM      4  C   UNL     1       1.114   1.531  -2.021  0.00  0.00    +0.000 C 
ATOM      5  O   UNL     1       2.527   1.422  -1.918  0.00  0.00    +0.000 OA
ENDBRANCH   3   5
ENDBRANCH   1   3
BRANCH   1   6
ATOM      6  C   UNL     1       5.182   2.323  -1.043  0.00  0.00    +0.000 C 
BRANCH   6   7
ATOM      7  C   UNL     1       4.911   3.610  -0.281  0.00  0.00    +0.000 C 
ATOM      8  O   UNL     1       4.204   3.727   0.714  0.00  0.00    +0.000 OA
ENDBRANCH   6   7
ENDBRANCH   1   6
TORSDOF 4
