REMARK  Name = ligand_818648
REMARK  5 active torsions:
REMARK  status: ('A' for Active; 'I' for Inactive)
REMARK    1  A    between atoms: C_1  and  O_2
REMARK    2  A    between atoms: O_2  and  C_3
REMARK    3  A    between atoms: C_3  and  C_4
REMARK    4  A    between atoms: C_3  and  C_6
REMARK    5  A    between atoms: C_6  and  C_7
REMARK                            x       y       z     vdW  Elec       q    Type
REMARK                         _______ _______ _______ _____ _____    ______ ____
ROOT
ATOM      1  C   UNL     1       2.934  -1.377   0.325  0.00  0.00    +0.000 C 
ENDROOT
BRANCH   1   2
ATOM      2  C   UNL     1       4.446  -1.338   0.438  0.00  0.00    +0.000 C 
ATOM      3  C   UNL     1       5.238  -1.004  -0.798  0.00  0.00    +0.000 C 
ATOM      4  C   UNL     1       5.083  -1.571   1.599  0.00  0.00    +0.000 C 
ENDBRANCH   1   2
BRANCH   1   6
ATOM      5  C   UNL     1       1.073   0.019  -0.118  0.00  0.00    +0.000 C 
ATOM      6  O   UNL     1       2.490  -0.110  -0.147  0.00  0.00    +0.000 OA
ENDBRANCH   1   6
BRANCH   1   7
ATOM      7  C   UNL     1       2.533  -2.531  -0.595  0.00  0.00    +0.000 C 
ATOM      8  O   UNL     1       1.901  -3.518  -0.223  0.00  0.00    +0.000 OA
ENDBRANCH   1   7
TORSDOF 3
