REMARK  Name = ligand_819252
REMARK  0 active torsions:
REMARK  status: ('A' for Active; 'I' for Inactive)
REMARK                            x       y       z     vdW  Elec       q    Type
REMARK                         _______ _______ _______ _____ _____    ______ ____
ROOT
ATOM      1  O   UNL     1       1.136   0.030   0.055  0.00  0.00    +0.000 OA
ATOM      2  C   UNL     1       2.354  -0.013   0.102  0.00  0.00    +0.000 C 
ATOM      3  C   UNL     1       3.221  -1.229   0.028  0.00  0.00    +0.000 C 
ATOM      4  C   UNL     1       4.541  -0.700   0.572  0.00  0.00    +0.000 C 
ATOM      5  O   UNL     1       4.613   0.690   0.223  0.00  0.00    +0.000 OA
ATOM      6  C   UNL     1       3.250   1.156   0.143  0.00  0.00    +0.000 C 
ATOM      7  C   UNL     1       2.932   2.408   0.899  0.00  0.00    +0.000 C 
ATOM      8  C   UNL     1       2.991   2.424  -0.607  0.00  0.00    +0.000 C 
ENDROOT
TORSDOF 0
