REMARK  Name = ligand_819373
REMARK  1 active torsions:
REMARK  status: ('A' for Active; 'I' for Inactive)
REMARK    1  A    between atoms: C_2  and  C_3
REMARK                            x       y       z     vdW  Elec       q    Type
REMARK                         _______ _______ _______ _____ _____    ______ ____
ROOT
ATOM      1  C   UNL     1       3.143  -1.288  -1.074  0.00  0.00    +0.000 C 
ATOM      2  C   UNL     1       4.194  -0.877  -2.096  0.00  0.00    +0.000 C 
ATOM      3  C   UNL     1       3.171  -1.908  -2.452  0.00  0.00    +0.000 C 
ATOM      4  C   UNL     1       3.487  -3.373  -2.307  0.00  0.00    +0.000 C 
ATOM      5  C   UNL     1       3.039  -3.684  -0.880  0.00  0.00    +0.000 C 
ATOM      6  C   UNL     1       3.405  -2.418  -0.096  0.00  0.00    +0.000 C 
ENDROOT
BRANCH   1   8
ATOM      7  O   UNL     1       0.963  -0.369  -0.949  0.00  0.00    +0.000 OA
ATOM      8  C   UNL     1       2.156  -0.246  -0.697  0.00  0.00    +0.000 C 
ENDBRANCH   1   8
TORSDOF 1
