REMARK  Name = ligand_819423
REMARK  3 active torsions:
REMARK  status: ('A' for Active; 'I' for Inactive)
REMARK    1  A    between atoms: O_1  and  C_2
REMARK    2  A    between atoms: C_2  and  C_3
REMARK    3  A    between atoms: C_3  and  C_6
REMARK                            x       y       z     vdW  Elec       q    Type
REMARK                         _______ _______ _______ _____ _____    ______ ____
ROOT
ATOM      1  C   UNL     1       2.450   1.359   0.198  0.00  0.00    +0.000 C 
ATOM      2  C   UNL     1       1.584   1.753   1.372  0.00  0.00    +0.000 C 
ATOM      3  C   UNL     1       3.076   1.889   1.465  0.00  0.00    +0.000 C 
ENDROOT
BRANCH   1   4
ATOM      4  C   UNL     1       3.559  -0.269  -1.337  0.00  0.00    +0.000 C 
ATOM      5  C   UNL     1       4.010  -1.649  -1.740  0.00  0.00    +0.000 C 
ATOM      6  O   UNL     1       4.858  -0.762  -0.992  0.00  0.00    +0.000 OA
ENDBRANCH   1   4
BRANCH   1   7
ATOM      7  C   UNL     1       2.605  -0.085  -0.197  0.00  0.00    +0.000 C 
BRANCH   7   8
ATOM      8  O   UNL     1       1.334  -0.568  -0.621  0.00  0.00    +0.000 OA
ATOM      9  H   UNL     1       0.730  -0.446   0.130  0.00  0.00    +0.000 HD
ENDBRANCH   7   8
ENDBRANCH   1   7
TORSDOF 3
