REMARK  Name = ligand_819597
REMARK  2 active torsions:
REMARK  status: ('A' for Active; 'I' for Inactive)
REMARK    1  A    between atoms: O_1  and  C_2
REMARK    2  A    between atoms: C_2  and  C_3
REMARK                            x       y       z     vdW  Elec       q    Type
REMARK                         _______ _______ _______ _____ _____    ______ ____
ROOT
ATOM      1  C   UNL     1       2.919   0.888  -1.147  0.00  0.00    +0.000 C 
ATOM      2  C   UNL     1       3.585   2.102  -0.488  0.00  0.00    +0.000 C 
ATOM      3  O   UNL     1       2.544   3.088  -0.348  0.00  0.00    +0.000 OA
ATOM      4  C   UNL     1       1.654   2.923  -1.481  0.00  0.00    +0.000 C 
ATOM      5  C   UNL     1       0.506   1.979  -1.374  0.00  0.00    +0.000 C 
ATOM      6  C   UNL     1       1.813   1.509  -1.964  0.00  0.00    +0.000 C 
ENDROOT
BRANCH   1   7
ATOM      7  C   UNL     1       2.435  -0.101  -0.085  0.00  0.00    +0.000 C 
BRANCH   7   8
ATOM      8  O   UNL     1       1.778  -1.204  -0.698  0.00  0.00    +0.000 OA
ATOM      9  H   UNL     1       1.270  -1.652  -0.001  0.00  0.00    +0.000 HD
ENDBRANCH   7   8
ENDBRANCH   1   7
TORSDOF 2
