REMARK  Name = ligand_819528
REMARK  2 active torsions:
REMARK  status: ('A' for Active; 'I' for Inactive)
REMARK    1  A    between atoms: O_1  and  C_2
REMARK    2  A    between atoms: C_2  and  C_3
REMARK                            x       y       z     vdW  Elec       q    Type
REMARK                         _______ _______ _______ _____ _____    ______ ____
ROOT
ATOM      1  C   UNL     1       2.937   0.681   1.313  0.00  0.00    +0.000 C 
ATOM      2  C   UNL     1       1.810   1.273   2.168  0.00  0.00    +0.000 C 
ATOM      3  C   UNL     1       1.171   2.485   1.499  0.00  0.00    +0.000 C 
ATOM      4  C   UNL     1       2.240   3.488   1.092  0.00  0.00    +0.000 C 
ATOM      5  C   UNL     1       3.343   2.819   0.283  0.00  0.00    +0.000 C 
ATOM      6  O   UNL     1       3.892   1.695   0.967  0.00  0.00    +0.000 OA
ENDROOT
BRANCH   1   7
ATOM      7  C   UNL     1       2.443  -0.082   0.072  0.00  0.00    +0.000 C 
BRANCH   7   8
ATOM      8  O   UNL     1       1.568  -1.143   0.435  0.00  0.00    +0.000 OA
ATOM      9  H   UNL     1       1.267  -1.557  -0.392  0.00  0.00    +0.000 HD
ENDBRANCH   7   8
ENDBRANCH   1   7
TORSDOF 2
