REMARK  Name = ligand_81984
REMARK  0 active torsions:
REMARK  status: ('A' for Active; 'I' for Inactive)
REMARK                            x       y       z     vdW  Elec       q    Type
REMARK                         _______ _______ _______ _____ _____    ______ ____
ROOT
ATOM      1  C   UNL     1      -2.248  -0.017  -0.573  0.00  0.00    +0.000 C 
ATOM      2  C   UNL     1      -1.280   0.740   0.292  0.00  0.00    +0.000 C 
ATOM      3  C   UNL     1       0.040   1.251  -0.222  0.00  0.00    +0.000 C 
ATOM      4  C   UNL     1       0.938   0.033  -0.167  0.00  0.00    +0.000 C 
ATOM      5  C   UNL     1       2.375   0.069  -0.627  0.00  0.00    +0.000 C 
ATOM      6  N   UNL     1       2.055   0.018   0.795  0.00  0.00    +0.000 NA
ATOM      7  C   UNL     1       0.086  -1.214  -0.259  0.00  0.00    +0.000 C 
ATOM      8  C   UNL     1      -1.252  -0.766   0.271  0.00  0.00    +0.000 C 
ATOM      9  H   UNL     1       2.164   0.931   1.238  0.00  0.00    +0.000 HD
ENDROOT
TORSDOF 0
