REMARK  Name = ligand_820971
REMARK  5 active torsions:
REMARK  status: ('A' for Active; 'I' for Inactive)
REMARK    1  A    between atoms: C_1  and  C_2
REMARK    2  A    between atoms: C_4  and  N_5
REMARK    3  A    between atoms: N_5  and  C_6
REMARK    4  A    between atoms: C_6  and  C_7
REMARK    5  A    between atoms: C_7  and  O_8
REMARK                            x       y       z     vdW  Elec       q    Type
REMARK                         _______ _______ _______ _____ _____    ______ ____
ROOT
ATOM      1  N   UNL     1       2.604  -1.443  -2.228  0.00  0.00    +0.000 NA
ATOM      2  H   UNL     1       1.598  -1.285  -2.247  0.00  0.00    +0.000 HD
ENDROOT
BRANCH   1   6
ATOM      3  C   UNL     1       0.924   0.033  -0.095  0.00  0.00    +0.000 C 
ATOM      4  C   UNL     1       2.414   0.002  -0.079  0.00  0.00    +0.000 C 
ATOM      5  C   UNL     1       3.189   0.807  -1.085  0.00  0.00    +0.000 C 
ATOM      6  C   UNL     1       3.239  -0.696  -1.135  0.00  0.00    +0.000 C 
ENDBRANCH   1   6
BRANCH   1   7
ATOM      7  C   UNL     1       3.144  -1.127  -3.563  0.00  0.00    +0.000 C 
BRANCH   7   8
ATOM      8  C   UNL     1       4.629  -1.478  -3.707  0.00  0.00    +0.000 C 
BRANCH   8   9
ATOM      9  O   UNL     1       4.842  -2.854  -3.400  0.00  0.00    +0.000 OA
ATOM     10  H   UNL     1       4.257  -3.035  -2.637  0.00  0.00    +0.000 HD
ENDBRANCH   8   9
ENDBRANCH   7   8
ENDBRANCH   1   7
TORSDOF 4
