REMARK  Name = ligand_820989
REMARK  3 active torsions:
REMARK  status: ('A' for Active; 'I' for Inactive)
REMARK    1  A    between atoms: C_1  and  C_2
REMARK    2  A    between atoms: C_4  and  N_5
REMARK    3  A    between atoms: N_5  and  N_6
REMARK                            x       y       z     vdW  Elec       q    Type
REMARK                         _______ _______ _______ _____ _____    ______ ____
ROOT
ATOM      1  N   UNL     1       2.812  -2.014  -2.056  0.00  0.00    +0.000 NA
ATOM      2  H   UNL     1       3.621  -0.794  -3.390  0.00  0.00    +0.000 HD
ENDROOT
BRANCH   1   6
ATOM      3  C   UNL     1       0.848  -0.278  -0.276  0.00  0.00    +0.000 C 
ATOM      4  C   UNL     1       2.318  -0.395  -0.058  0.00  0.00    +0.000 C 
ATOM      5  C   UNL     1       3.271   0.283  -0.998  0.00  0.00    +0.000 C 
ATOM      6  C   UNL     1       3.233  -1.227  -0.928  0.00  0.00    +0.000 C 
ENDBRANCH   1   6
BRANCH   1   7
ATOM      7  N   UNL     1       3.492  -1.799  -3.274  0.00  0.00    +0.000 N 
ATOM      8  C   UNL     1       2.167  -3.239  -1.889  0.00  0.00    +0.000 C 
ATOM      9  O   UNL     1       1.776  -3.720  -0.832  0.00  0.00    +0.000 OA
ATOM     10  H   UNL     1       4.433  -2.186  -3.167  0.00  0.00    +0.000 HD
ENDBRANCH   1   7
TORSDOF 2
