REMARK  Name = ligand_82106
REMARK  0 active torsions:
REMARK  status: ('A' for Active; 'I' for Inactive)
REMARK                            x       y       z     vdW  Elec       q    Type
REMARK                         _______ _______ _______ _____ _____    ______ ____
ROOT
ATOM      1  C   UNL     1      -1.315   1.205   0.022  0.00  0.00    +0.000 C 
ATOM      2  N   UNL     1      -2.135  -0.072   0.016  0.00  0.00    +0.000 NA
ATOM      3  C   UNL     1      -1.284  -1.059   0.007  0.00  0.00    +0.000 C 
ATOM      4  N   UNL     1       0.015  -0.623   0.006  0.00  0.00    +0.000 N 
ATOM      5  C   UNL     1       1.260  -1.163  -0.001  0.00  0.00    +0.000 A 
ATOM      6  C   UNL     1       2.144  -0.092   0.000  0.00  0.00    +0.000 A 
ATOM      7  C   UNL     1       1.380   1.118   0.008  0.00  0.00    +0.000 A 
ATOM      8  C   UNL     1       0.073   0.721   0.013  0.00  0.00    +0.000 A 
ENDROOT
TORSDOF 0
