REMARK  Name = ligand_822344
REMARK  2 active torsions:
REMARK  status: ('A' for Active; 'I' for Inactive)
REMARK    1  A    between atoms: C_1  and  C_2
REMARK    2  A    between atoms: C_7  and  N_8
REMARK                            x       y       z     vdW  Elec       q    Type
REMARK                         _______ _______ _______ _____ _____    ______ ____
ROOT
ATOM      1  C   UNL     1       0.919   0.049  -0.071  0.00  0.00    +0.000 C 
ATOM      2  C   UNL     1       2.424   0.029  -0.045  0.00  0.00    +0.000 C 
ATOM      3  C   UNL     1       3.127   1.166  -0.057  0.00  0.00    +0.000 C 
ATOM      4  O   UNL     1       4.476   1.291  -0.064  0.00  0.00    +0.000 OA
ATOM      5  C   UNL     1       5.278   0.120  -0.122  0.00  0.00    +0.000 C 
ATOM      6  C   UNL     1       4.616  -1.255  -0.113  0.00  0.00    +0.000 C 
ATOM      7  C   UNL     1       3.091  -1.306  -0.035  0.00  0.00    +0.000 C 
ENDROOT
BRANCH   7   8
ATOM      8  N   UNL     1       2.670  -2.062   1.148  0.00  0.00    +0.000 NA
ATOM      9  H   UNL     1       2.985  -1.565   1.981  0.00  0.00    +0.000 HD
ATOM     10  H   UNL     1       3.140  -2.964   1.162  0.00  0.00    +0.000 HD
ENDBRANCH   7   8
TORSDOF 1
