REMARK  Name = ligand_823127
REMARK  1 active torsions:
REMARK  status: ('A' for Active; 'I' for Inactive)
REMARK    1  A    between atoms: C_1  and  C_2
REMARK                            x       y       z     vdW  Elec       q    Type
REMARK                         _______ _______ _______ _____ _____    ______ ____
ROOT
ATOM      1  C   UNL     1       1.167  -0.139   0.207  0.00  0.00    +0.000 C 
ATOM      2  C   UNL     1       2.658  -0.054  -0.035  0.00  0.00    +0.000 C 
ATOM      3  N   UNL     1       3.265  -1.173  -0.307  0.00  0.00    +0.000 NA
ATOM      4  O   UNL     1       4.618  -1.109  -0.680  0.00  0.00    +0.000 OA
ATOM      5  C   UNL     1       5.462  -0.487   0.281  0.00  0.00    +0.000 C 
ATOM      6  C   UNL     1       5.748   0.919  -0.224  0.00  0.00    +0.000 C 
ATOM      7  C   UNL     1       4.483   1.616  -0.729  0.00  0.00    +0.000 C 
ATOM      8  C   UNL     1       3.279   1.327   0.145  0.00  0.00    +0.000 C 
ENDROOT
TORSDOF 0
