REMARK  Name = ligand_823495
REMARK  2 active torsions:
REMARK  status: ('A' for Active; 'I' for Inactive)
REMARK    1  A    between atoms: C_1  and  C_2
REMARK    2  A    between atoms: C_2  and  O_3
REMARK                            x       y       z     vdW  Elec       q    Type
REMARK                         _______ _______ _______ _____ _____    ______ ____
ROOT
ATOM      1  C   UNL     1       0.961  -0.059  -0.091  0.00  0.00    +0.000 C 
ATOM      2  C   UNL     1       2.477  -0.019  -0.093  0.00  0.00    +0.000 C 
ATOM      3  C   UNL     1       3.129  -1.226   0.567  0.00  0.00    +0.000 C 
ATOM      4  O   UNL     1       4.409  -0.775   1.061  0.00  0.00    +0.000 OA
ATOM      5  N   UNL     1       4.189   0.562   1.454  0.00  0.00    +0.000 N 
ATOM      6  C   UNL     1       3.075   1.035   0.810  0.00  0.00    +0.000 C 
ATOM      7  N   UNL     1       2.602   2.234   0.910  0.00  0.00    +0.000 NA
ATOM      8  H   UNL     1       5.015   1.142   1.325  0.00  0.00    +0.000 HD
ATOM      9  H   UNL     1       3.171   2.757   1.582  0.00  0.00    +0.000 HD
ENDROOT
BRANCH   2  10
ATOM     10  O   UNL     1       2.975   0.154  -1.420  0.00  0.00    +0.000 OA
ATOM     11  H   UNL     1       2.516  -0.477  -1.997  0.00  0.00    +0.000 HD
ENDBRANCH   2  10
TORSDOF 1
