REMARK  Name = ligand_823532
REMARK  3 active torsions:
REMARK  status: ('A' for Active; 'I' for Inactive)
REMARK    1  A    between atoms: C_1  and  C_2
REMARK    2  A    between atoms: C_5  and  C_6
REMARK    3  A    between atoms: C_7  and  N_8
REMARK                            x       y       z     vdW  Elec       q    Type
REMARK                         _______ _______ _______ _____ _____    ______ ____
ROOT
ATOM      1  C   UNL     1       1.067   0.112  -0.465  0.00  0.00    +0.000 C 
ATOM      2  C   UNL     1       2.542  -0.265  -0.363  0.00  0.00    +0.000 C 
ATOM      3  O   UNL     1       3.385   0.775  -0.870  0.00  0.00    +0.000 OA
ATOM      4  N   UNL     1       3.252   1.015  -2.251  0.00  0.00    +0.000 NA
ATOM      5  C   UNL     1       3.205  -0.049  -2.991  0.00  0.00    +0.000 C 
ATOM      6  C   UNL     1       3.176  -1.467  -2.514  0.00  0.00    +0.000 C 
ATOM      7  C   UNL     1       2.961  -1.595  -1.012  0.00  0.00    +0.000 C 
ENDROOT
BRANCH   7   8
ATOM      8  N   UNL     1       2.082  -2.739  -0.716  0.00  0.00    +0.000 NA
ATOM      9  H   UNL     1       1.162  -2.587  -1.126  0.00  0.00    +0.000 HD
ATOM     10  H   UNL     1       1.930  -2.805   0.289  0.00  0.00    +0.000 HD
ENDBRANCH   7   8
TORSDOF 1
