REMARK  Name = ligand_823578
REMARK  2 active torsions:
REMARK  status: ('A' for Active; 'I' for Inactive)
REMARK    1  A    between atoms: C_1  and  C_2
REMARK    2  A    between atoms: C_2  and  C_3
REMARK                            x       y       z     vdW  Elec       q    Type
REMARK                         _______ _______ _______ _____ _____    ______ ____
ROOT
ATOM      1  C   UNL     1       3.127  -0.279  -1.593  0.00  0.00    +0.000 C 
ATOM      2  C   UNL     1       3.464   1.002  -2.283  0.00  0.00    +0.000 C 
ATOM      3  N   UNL     1       3.021   0.786  -3.674  0.00  0.00    +0.000 NA
ATOM      4  C   UNL     1       3.174  -0.650  -3.975  0.00  0.00    +0.000 C 
ATOM      5  C   UNL     1       2.899  -1.297  -2.659  0.00  0.00    +0.000 C 
ATOM      6  O   UNL     1       4.040  -1.377  -1.797  0.00  0.00    +0.000 OA
ATOM      7  H   UNL     1       3.590   1.339  -4.310  0.00  0.00    +0.000 HD
ENDROOT
BRANCH   1   9
ATOM      8  C   UNL     1       3.413   0.343   0.821  0.00  0.00    +0.000 C 
ATOM      9  C   UNL     1       2.514  -0.290  -0.228  0.00  0.00    +0.000 C 
ENDBRANCH   1   9
TORSDOF 1
