REMARK  Name = ligand_825118
REMARK  6 active torsions:
REMARK  status: ('A' for Active; 'I' for Inactive)
REMARK    1  A    between atoms: C_1  and  C_2
REMARK    2  A    between atoms: C_3  and  C_4
REMARK    3  A    between atoms: C_4  and  O_5
REMARK    4  A    between atoms: C_4  and  C_6
REMARK    5  A    between atoms: C_6  and  C_7
REMARK    6  A    between atoms: C_7  and  N_8
REMARK                            x       y       z     vdW  Elec       q    Type
REMARK                         _______ _______ _______ _____ _____    ______ ____
ROOT
ATOM      1  C   UNL     1      -1.309  -0.614   0.018  0.00  0.00    +0.000 C 
ENDROOT
BRANCH   1   4
ATOM      2  C   UNL     1       2.713   0.334  -0.010  0.00  0.00    +0.000 C 
ATOM      3  C   UNL     1       1.277   0.056  -0.047  0.00  0.00    +0.000 C 
ATOM      4  C   UNL     1       0.106  -0.218  -0.043  0.00  0.00    +0.000 C 
ENDBRANCH   1   4
BRANCH   1   5
ATOM      5  O   UNL     1      -2.128   0.550  -0.016  0.00  0.00    +0.000 OA
ATOM      6  H   UNL     1      -1.864   1.101   0.741  0.00  0.00    +0.000 HD
ENDBRANCH   1   5
BRANCH   1   7
ATOM      7  C   UNL     1      -1.582  -1.409   1.299  0.00  0.00    +0.000 C 
BRANCH   7   8
ATOM      8  C   UNL     1      -3.040  -1.854   1.392  0.00  0.00    +0.000 C 
BRANCH   8   9
ATOM      9  N   UNL     1      -3.265  -2.605   2.625  0.00  0.00    +0.000 NA
ATOM     10  H   UNL     1      -2.687  -3.444   2.629  0.00  0.00    +0.000 HD
ATOM     11  H   UNL     1      -4.233  -2.927   2.647  0.00  0.00    +0.000 HD
ENDBRANCH   8   9
ENDBRANCH   7   8
ENDBRANCH   1   7
TORSDOF 5
