REMARK  Name = ligand_825630
REMARK  7 active torsions:
REMARK  status: ('A' for Active; 'I' for Inactive)
REMARK    1  A    between atoms: C_1  and  C_2
REMARK    2  A    between atoms: C_2  and  C_3
REMARK    3  A    between atoms: C_3  and  N_4
REMARK    4  A    between atoms: C_3  and  C_5
REMARK    5  A    between atoms: C_5  and  O_6
REMARK    6  A    between atoms: C_5  and  C_7
REMARK    7  A    between atoms: C_7  and  C_8
REMARK                            x       y       z     vdW  Elec       q    Type
REMARK                         _______ _______ _______ _____ _____    ______ ____
ROOT
ATOM      1  C   UNL     1       2.909  -1.203  -0.731  0.00  0.00    +0.000 C 
ENDROOT
BRANCH   1   2
ATOM      2  N   UNL     1       2.461  -1.214  -2.130  0.00  0.00    +0.000 NA
ATOM      3  H   UNL     1       2.826  -0.381  -2.597  0.00  0.00    +0.000 HD
ATOM      4  H   UNL     1       1.446  -1.174  -2.191  0.00  0.00    +0.000 HD
ENDBRANCH   1   2
BRANCH   1   6
ATOM      5  C   UNL     1       0.798   0.032   0.081  0.00  0.00    +0.000 C 
ATOM      6  C   UNL     1       2.319   0.008   0.025  0.00  0.00    +0.000 C 
ENDBRANCH   1   6
BRANCH   1   7
ATOM      7  C   UNL     1       4.470  -1.218  -0.704  0.00  0.00    +0.000 C 
BRANCH   7   8
ATOM      8  O   UNL     1       4.992  -0.029  -1.313  0.00  0.00    +0.000 OA
ATOM      9  H   UNL     1       4.818   0.716  -0.718  0.00  0.00    +0.000 HD
ENDBRANCH   7   8
BRANCH   7  10
ATOM     10  C   UNL     1       5.028  -1.368   0.720  0.00  0.00    +0.000 C 
ATOM     11  C   UNL     1       6.548  -1.415   0.751  0.00  0.00    +0.000 C 
ENDBRANCH   7  10
ENDBRANCH   1   7
TORSDOF 5
