REMARK  Name = ligand_825757
REMARK  5 active torsions:
REMARK  status: ('A' for Active; 'I' for Inactive)
REMARK    1  A    between atoms: C_1  and  C_2
REMARK    2  A    between atoms: C_2  and  C_3
REMARK    3  A    between atoms: N_4  and  N_5
REMARK    4  A    between atoms: C_6  and  O_7
REMARK    5  A    between atoms: O_7  and  C_8
REMARK                            x       y       z     vdW  Elec       q    Type
REMARK                         _______ _______ _______ _____ _____    ______ ____
ROOT
ATOM      1  C   UNL     1       3.104   0.776  -1.193  0.00  0.00    +0.000 C 
ATOM      2  N   UNL     1       4.377   0.894  -1.384  0.00  0.00    +0.000 NA
ENDROOT
BRANCH   1   4
ATOM      3  C   UNL     1       1.698  -1.170  -0.606  0.00  0.00    +0.000 C 
ATOM      4  C   UNL     1       2.561  -0.049  -0.062  0.00  0.00    +0.000 C 
ENDBRANCH   1   4
BRANCH   2   5
ATOM      5  N   UNL     1       4.616   1.717  -2.481  0.00  0.00    +0.000 NA
ATOM      6  C   UNL     1       5.876   1.886  -2.682  0.00  0.00    +0.000 C 
BRANCH   6   7
ATOM      7  O   UNL     1       6.372   2.650  -3.687  0.00  0.00    +0.000 OA
ATOM      8  C   UNL     1       5.390   3.273  -4.521  0.00  0.00    +0.000 C 
ENDBRANCH   6   7
ENDBRANCH   2   5
TORSDOF 3
