REMARK  Name = ligand_825902
REMARK  4 active torsions:
REMARK  status: ('A' for Active; 'I' for Inactive)
REMARK    1  A    between atoms: C_2  and  C_3
REMARK    2  A    between atoms: C_3  and  O_4
REMARK    3  A    between atoms: O_4  and  C_5
REMARK    4  A    between atoms: C_5  and  C_6
REMARK                            x       y       z     vdW  Elec       q    Type
REMARK                         _______ _______ _______ _____ _____    ______ ____
ROOT
ATOM      1  C   UNL     1       5.630  -0.218  -1.392  0.00  0.00    +0.000 C 
ENDROOT
BRANCH   1   2
ATOM      2  C   UNL     1       6.115  -0.371  -2.799  0.00  0.00    +0.000 C 
ATOM      3  C   UNL     1       5.775  -1.602  -3.597  0.00  0.00    +0.000 C 
ATOM      4  N   UNL     1       7.133  -1.378  -3.107  0.00  0.00    +0.000 NA
ATOM      5  H   UNL     1       7.740  -1.062  -3.866  0.00  0.00    +0.000 HD
ENDBRANCH   1   2
BRANCH   1   6
ATOM      6  O   UNL     1       4.206  -0.114  -1.401  0.00  0.00    +0.000 OA
BRANCH   6   7
ATOM      7  C   UNL     1       3.699   0.029  -0.075  0.00  0.00    +0.000 C 
BRANCH   7   9
ATOM      8  C   UNL     1       1.033   0.087  -0.114  0.00  0.00    +0.000 C 
ATOM      9  C   UNL     1       2.233   0.062  -0.110  0.00  0.00    +0.000 C 
ENDBRANCH   7   9
ENDBRANCH   6   7
ENDBRANCH   1   6
TORSDOF 4
