REMARK  Name = ligand_826118
REMARK  5 active torsions:
REMARK  status: ('A' for Active; 'I' for Inactive)
REMARK    1  A    between atoms: C_1  and  C_2
REMARK    2  A    between atoms: C_2  and  C_3
REMARK    3  A    between atoms: CA_5  and  N_6
REMARK    4  A    between atoms: CA_5  and  C_7
REMARK    5  A    between atoms: C_7  and  O_8
REMARK                            x       y       z     vdW  Elec       q    Type
REMARK                         _______ _______ _______ _____ _____    ______ ____
ROOT
ATOM      1  C   UNL     1       0.930   0.049   0.111  0.00  0.00    +0.000 C 
ATOM      2  C   UNL     1       2.431   0.026   0.053  0.00  0.00    +0.000 C 
ATOM      3  CA  UNL     1       3.132  -0.677  -0.869  0.00  0.00    +0.000 C 
ENDROOT
BRANCH   3   4
ATOM      4  N   UNL     1       2.520  -1.449  -1.857  0.00  0.00    +0.000 N 
ATOM      5  H1  UNL     1       1.552  -1.194  -2.043  0.00  0.00    +0.000 HD
ATOM      6  H2  UNL     1       3.070  -1.430  -2.725  0.00  0.00    +0.000 HD
ENDBRANCH   3   4
BRANCH   2   7
ATOM      7  C   UNL     1       3.130   0.843   1.088  0.00  0.00    +0.000 C 
ATOM      8  O   UNL     1       2.559   1.681   1.775  0.00  0.00    +0.000 OA
ENDBRANCH   2   7
BRANCH   3   9
ATOM      9  C   UNL     1       4.660  -0.648  -0.937  0.00  0.00    +0.000 C 
BRANCH   9  10
ATOM     10  O   UNL     1       5.108  -1.485  -2.002  0.00  0.00    +0.000 OA
ATOM     11  H   UNL     1       4.692  -2.351  -1.833  0.00  0.00    +0.000 HD
ENDBRANCH   9  10
ENDBRANCH   3   9
TORSDOF 4
