REMARK  Name = ligand_826314
REMARK  3 active torsions:
REMARK  status: ('A' for Active; 'I' for Inactive)
REMARK    1  A    between atoms: C_1  and  C_2
REMARK    2  A    between atoms: C_2  and  C_3
REMARK    3  A    between atoms: N_5  and  O_6
REMARK                            x       y       z     vdW  Elec       q    Type
REMARK                         _______ _______ _______ _____ _____    ______ ____
ROOT
ATOM      1  C   UNL     1       3.096   1.334  -0.587  0.00  0.00    +0.000 C 
ATOM      2  O   UNL     1       2.280   2.190  -0.933  0.00  0.00    +0.000 OA
ATOM      3  N   UNL     1       4.458   1.534  -0.668  0.00  0.00    +0.000 N 
ATOM      4  C   UNL     1       5.009   2.702  -1.139  0.00  0.00    +0.000 C 
ATOM      5  N   UNL     1       6.282   2.892  -1.217  0.00  0.00    +0.000 NA
ATOM      6  H   UNL     1       6.726   2.030  -0.871  0.00  0.00    +0.000 HD
ENDROOT
BRANCH   1   8
ATOM      7  C   UNL     1       1.107  -0.101  -0.003  0.00  0.00    +0.000 C 
ATOM      8  C   UNL     1       2.625  -0.007  -0.044  0.00  0.00    +0.000 C 
ENDBRANCH   1   8
BRANCH   3   9
ATOM      9  O   UNL     1       5.424   0.582  -0.284  0.00  0.00    +0.000 OA
ATOM     10  H   UNL     1       4.937  -0.194   0.029  0.00  0.00    +0.000 HD
ENDBRANCH   3   9
TORSDOF 2
