REMARK  Name = ligand_827051
REMARK  4 active torsions:
REMARK  status: ('A' for Active; 'I' for Inactive)
REMARK    1  A    between atoms: C_1  and  C_2
REMARK    2  A    between atoms: N_3  and  N_4
REMARK    3  A    between atoms: C_5  and  O_6
REMARK    4  A    between atoms: O_6  and  C_7
REMARK                            x       y       z     vdW  Elec       q    Type
REMARK                         _______ _______ _______ _____ _____    ______ ____
ROOT
ATOM      1  N   UNL     1       4.695  -1.019  -0.189  0.00  0.00    +0.000 NA
ATOM      2  C   UNL     1       5.360  -1.959  -0.767  0.00  0.00    +0.000 C 
ENDROOT
BRANCH   1   5
ATOM      3  C   UNL     1       1.194  -0.100   0.044  0.00  0.00    +0.000 C 
ATOM      4  C   UNL     1       2.688  -0.154   0.065  0.00  0.00    +0.000 C 
ATOM      5  N   UNL     1       3.321  -1.227  -0.285  0.00  0.00    +0.000 NA
ENDBRANCH   1   5
BRANCH   2   6
ATOM      6  O   UNL     1       6.713  -1.899  -0.804  0.00  0.00    +0.000 OA
BRANCH   6   7
ATOM      7  C   UNL     1       7.353  -2.813  -1.639  0.00  0.00    +0.000 C 
ATOM      8  C   UNL     1       8.684  -2.892  -1.678  0.00  0.00    +0.000 C 
ENDBRANCH   6   7
ENDBRANCH   2   6
TORSDOF 3
