REMARK  Name = ligand_827229
REMARK  4 active torsions:
REMARK  status: ('A' for Active; 'I' for Inactive)
REMARK    1  A    between atoms: C_1  and  C_2
REMARK    2  A    between atoms: C_2  and  O_3
REMARK    3  A    between atoms: C_2  and  C_4
REMARK    4  A    between atoms: N_7  and  C_8
REMARK                            x       y       z     vdW  Elec       q    Type
REMARK                         _______ _______ _______ _____ _____    ______ ____
ROOT
ATOM      1  C   UNL     1       3.030   1.268   0.597  0.00  0.00    +0.000 C 
ATOM      2  C   UNL     1       2.284   2.071   1.684  0.00  0.00    +0.000 C 
ATOM      3  C   UNL     1       2.865   3.309   0.978  0.00  0.00    +0.000 C 
ATOM      4  N   UNL     1       3.044   2.497  -0.257  0.00  0.00    +0.000 NA
ATOM      5  C   UNL     1       1.865   2.652  -1.114  0.00  0.00    +0.000 C 
ENDROOT
BRANCH   1   7
ATOM      6  C   UNL     1       3.266  -0.683  -0.973  0.00  0.00    +0.000 C 
ATOM      7  C   UNL     1       2.371  -0.003   0.055  0.00  0.00    +0.000 C 
BRANCH   7   8
ATOM      8  O   UNL     1       2.145  -0.911   1.139  0.00  0.00    +0.000 OA
ATOM      9  H   UNL     1       2.949  -0.935   1.687  0.00  0.00    +0.000 HD
ENDBRANCH   7   8
ENDBRANCH   1   7
TORSDOF 2
