REMARK  Name = ligand_82727
REMARK  4 active torsions:
REMARK  status: ('A' for Active; 'I' for Inactive)
REMARK    1  A    between atoms: C_1  and  C_2
REMARK    2  A    between atoms: C_2  and  C_3
REMARK    3  A    between atoms: C_5  and  N_6
REMARK    4  A    between atoms: N_6  and  N_7
REMARK                            x       y       z     vdW  Elec       q    Type
REMARK                         _______ _______ _______ _____ _____    ______ ____
ROOT
ATOM      1  C   UNL     1       1.139  -1.209  -0.005  0.00  0.00    +0.000 C 
ATOM      2  C   UNL     1       0.211  -0.021  -0.016  0.00  0.00    +0.000 C 
ATOM      3  C   UNL     1       0.912   1.313  -0.024  0.00  0.00    +0.000 C 
ATOM      4  C   UNL     1      -1.119  -0.139   0.697  0.00  0.00    +0.000 C 
ATOM      5  C   UNL     1      -1.084  -0.110  -0.806  0.00  0.00    +0.000 C 
ENDROOT
BRANCH   5   6
ATOM      6  N   UNL     1      -1.441  -1.324  -1.554  0.00  0.00    +0.000 N 
ATOM      7  H   UNL     1      -2.455  -1.366  -1.684  0.00  0.00    +0.000 HD
BRANCH   6   8
ATOM      8  N   UNL     1      -0.791  -1.253  -2.740  0.00  0.00    +0.000 NA
ATOM      9  C   UNL     1      -0.941  -2.310  -3.463  0.00  0.00    +0.000 C 
ENDBRANCH   6   8
ENDBRANCH   5   6
TORSDOF 2
