REMARK  Name = ligand_827888
REMARK  5 active torsions:
REMARK  status: ('A' for Active; 'I' for Inactive)
REMARK    1  A    between atoms: C_1  and  C_2
REMARK    2  A    between atoms: C_2  and  O_3
REMARK    3  A    between atoms: O_3  and  C_4
REMARK    4  A    between atoms: N_6  and  C_7
REMARK    5  A    between atoms: N_6  and  C_8
REMARK                            x       y       z     vdW  Elec       q    Type
REMARK                         _______ _______ _______ _____ _____    ______ ____
ROOT
ATOM      1  C   UNL     1       4.326   1.511   0.526  0.00  0.00    +0.000 C 
ATOM      2  O   UNL     1       5.094   0.676   0.062  0.00  0.00    +0.000 OA
ATOM      3  N   UNL     1       4.734   2.666   1.169  0.00  0.00    +0.000 N 
ATOM      4  C   UNL     1       3.817   3.723   1.562  0.00  0.00    +0.000 C 
ATOM      5  C   UNL     1       6.149   2.965   1.249  0.00  0.00    +0.000 C 
ENDROOT
BRANCH   1   6
ATOM      6  O   UNL     1       2.972   1.430   0.422  0.00  0.00    +0.000 OA
BRANCH   6   8
ATOM      7  C   UNL     1       2.438   1.179  -1.891  0.00  0.00    +0.000 C 
ATOM      8  C   UNL     1       2.482   0.488  -0.541  0.00  0.00    +0.000 C 
ENDBRANCH   6   8
ENDBRANCH   1   6
TORSDOF 2
