REMARK  Name = ligand_828316
REMARK  1 active torsions:
REMARK  status: ('A' for Active; 'I' for Inactive)
REMARK    1  A    between atoms: C_1  and  N_2
REMARK                            x       y       z     vdW  Elec       q    Type
REMARK                         _______ _______ _______ _____ _____    ______ ____
ROOT
ATOM      1  C   UNL     1       1.052   0.031   0.134  0.00  0.00    +0.000 C 
ATOM      2  N   UNL     1       2.436   0.018  -0.289  0.00  0.00    +0.000 N 
ATOM      3  C   UNL     1       3.202   1.242  -0.217  0.00  0.00    +0.000 C 
ATOM      4  C   UNL     1       4.250   1.210  -1.301  0.00  0.00    +0.000 C 
ATOM      5  C   UNL     1       5.124   0.001  -1.063  0.00  0.00    +0.000 C 
ATOM      6  O   UNL     1       4.395  -1.191  -0.721  0.00  0.00    +0.000 OA
ATOM      7  C   UNL     1       3.078  -1.210  -0.377  0.00  0.00    +0.000 C 
ATOM      8  O   UNL     1       2.506  -2.273  -0.169  0.00  0.00    +0.000 OA
ENDROOT
TORSDOF 0
