REMARK  Name = ligand_82842
REMARK  2 active torsions:
REMARK  status: ('A' for Active; 'I' for Inactive)
REMARK    1  A    between atoms: C_1  and  C_2
REMARK    2  A    between atoms: C_6  and  C_7
REMARK                            x       y       z     vdW  Elec       q    Type
REMARK                         _______ _______ _______ _____ _____    ______ ____
ROOT
ATOM      1  C   UNL     1       1.054   0.178  -0.034  0.00  0.00    +0.000 C 
ATOM      2  C   UNL     1       2.591   0.094  -0.082  0.00  0.00    +0.000 C 
ATOM      3  C   UNL     1       3.160   1.305  -0.842  0.00  0.00    +0.000 C 
ATOM      4  C   UNL     1       3.411   0.759  -2.211  0.00  0.00    +0.000 C 
ATOM      5  C   UNL     1       3.403  -0.582  -2.216  0.00  0.00    +0.000 C 
ATOM      6  C   UNL     1       3.151  -1.137  -0.846  0.00  0.00    +0.000 C 
ENDROOT
BRANCH   6   7
ATOM      7  C   UNL     1       2.149  -2.279  -0.882  0.00  0.00    +0.000 C 
ATOM      8  N   UNL     1       1.317  -3.227  -0.912  0.00  0.00    +0.000 NA
ENDBRANCH   6   7
TORSDOF 1
