REMARK  Name = ligand_828918
REMARK  4 active torsions:
REMARK  status: ('A' for Active; 'I' for Inactive)
REMARK    1  A    between atoms: C_1  and  N_2
REMARK    2  A    between atoms: N_2  and  C_3
REMARK    3  A    between atoms: C_3  and  C_4
REMARK    4  A    between atoms: C_6  and  C_7
REMARK                            x       y       z     vdW  Elec       q    Type
REMARK                         _______ _______ _______ _____ _____    ______ ____
ROOT
ATOM      1  C   UNL     1       4.345  -0.945   1.033  0.00  0.00    +0.000 C 
ATOM      2  O   UNL     1       4.940  -1.681   2.113  0.00  0.00    +0.000 OA
ATOM      3  C   UNL     1       5.242  -0.277   2.053  0.00  0.00    +0.000 C 
ENDROOT
BRANCH   3   4
ATOM      4  C   UNL     1       4.709   0.449   3.166  0.00  0.00    +0.000 C 
ATOM      5  C   UNL     1       4.250   1.041   4.104  0.00  0.00    +0.000 C 
ENDBRANCH   3   4
BRANCH   1   6
ATOM      6  C   UNL     1       2.850  -0.899   1.082  0.00  0.00    +0.000 C 
BRANCH   6   8
ATOM      7  C   UNL     1       0.911  -0.000  -0.010  0.00  0.00    +0.000 C 
ATOM      8  N   UNL     1       2.368  -0.065  -0.022  0.00  0.00    +0.000 NA
ATOM      9  H   UNL     1       2.738   0.879   0.086  0.00  0.00    +0.000 HD
ENDBRANCH   6   8
ENDBRANCH   1   6
TORSDOF 3
