REMARK  Name = ligand_82913
REMARK  3 active torsions:
REMARK  status: ('A' for Active; 'I' for Inactive)
REMARK    1  A    between atoms: C_1  and  C_2
REMARK    2  A    between atoms: C_5  and  C_6
REMARK    3  A    between atoms: C_7  and  N_8
REMARK                            x       y       z     vdW  Elec       q    Type
REMARK                         _______ _______ _______ _____ _____    ______ ____
ROOT
ATOM      1  C   UNL     1       0.947  -0.101  -0.000  0.00  0.00    +0.000 C 
ATOM      2  C   UNL     1       2.466  -0.068   0.119  0.00  0.00    +0.000 C 
ATOM      3  C   UNL     1       3.042  -1.347   0.739  0.00  0.00    +0.000 C 
ATOM      4  C   UNL     1       4.304  -0.929   1.499  0.00  0.00    +0.000 C 
ATOM      5  C   UNL     1       4.472   0.581   1.277  0.00  0.00    +0.000 C 
ATOM      6  C   UNL     1       5.452   0.868   0.138  0.00  0.00    +0.000 C 
ATOM      7  C   UNL     1       3.048   1.081   0.965  0.00  0.00    +0.000 C 
ENDROOT
BRANCH   7   8
ATOM      8  N   UNL     1       2.322   1.303   2.218  0.00  0.00    +0.000 NA
ATOM      9  H   UNL     1       2.219   0.427   2.728  0.00  0.00    +0.000 HD
ATOM     10  H   UNL     1       1.378   1.625   2.013  0.00  0.00    +0.000 HD
ENDBRANCH   7   8
TORSDOF 1
