REMARK  Name = ligand_829489
REMARK  3 active torsions:
REMARK  status: ('A' for Active; 'I' for Inactive)
REMARK    1  A    between atoms: C_1  and  N_2
REMARK    2  A    between atoms: N_2  and  C_3
REMARK    3  A    between atoms: N_6  and  C_7
REMARK                            x       y       z     vdW  Elec       q    Type
REMARK                         _______ _______ _______ _____ _____    ______ ____
ROOT
ATOM      1  C   UNL     1       1.151   0.011  -0.119  0.00  0.00    +0.000 C 
ATOM      2  N   UNL     1       2.605   0.016  -0.127  0.00  0.00    +0.000 N 
ATOM      3  C   UNL     1       3.290  -0.867   0.801  0.00  0.00    +0.000 C 
ATOM      4  C   UNL     1       3.224   0.872  -1.030  0.00  0.00    +0.000 C 
ATOM      5  O   UNL     1       2.571   1.592  -1.787  0.00  0.00    +0.000 OA
ATOM      6  N   UNL     1       4.607   0.863  -1.020  0.00  0.00    +0.000 N 
ATOM      7  H   UNL     1       5.087   0.254  -0.379  0.00  0.00    +0.000 HD
ENDROOT
BRANCH   6   8
ATOM      8  C   UNL     1       5.362   1.655  -1.852  0.00  0.00    +0.000 C 
ATOM      9  C   UNL     1       6.697   1.658  -1.855  0.00  0.00    +0.000 C 
ENDBRANCH   6   8
TORSDOF 1
