REMARK  Name = ligand_82977
REMARK  3 active torsions:
REMARK  status: ('A' for Active; 'I' for Inactive)
REMARK    1  A    between atoms: C_1  and  C_2
REMARK    2  A    between atoms: C_4  and  C_5
REMARK    3  A    between atoms: C_6  and  N_7
REMARK                            x       y       z     vdW  Elec       q    Type
REMARK                         _______ _______ _______ _____ _____    ______ ____
ROOT
ATOM      1  C   UNL     1       0.801  -0.019  -0.061  0.00  0.00    +0.000 C 
ATOM      2  C   UNL     1       2.299   0.125   0.112  0.00  0.00    +0.000 C 
ATOM      3  C   UNL     1       3.157  -1.147  -0.023  0.00  0.00    +0.000 C 
ATOM      4  C   UNL     1       4.075  -0.600   1.125  0.00  0.00    +0.000 C 
ATOM      5  C   UNL     1       4.576  -1.826   1.891  0.00  0.00    +0.000 C 
ATOM      6  C   UNL     1       5.228   0.396   0.849  0.00  0.00    +0.000 C 
ATOM      7  C   UNL     1       2.819   0.227   1.574  0.00  0.00    +0.000 C 
ENDROOT
BRANCH   6   8
ATOM      8  N   UNL     1       5.869   0.803   2.095  0.00  0.00    +0.000 NA
ATOM      9  H   UNL     1       5.192   0.815   2.853  0.00  0.00    +0.000 HD
ATOM     10  H   UNL     1       6.223   1.749   2.018  0.00  0.00    +0.000 HD
ENDBRANCH   6   8
TORSDOF 1
