REMARK  Name = ligand_829726
REMARK  3 active torsions:
REMARK  status: ('A' for Active; 'I' for Inactive)
REMARK    1  A    between atoms: C_1  and  N_2
REMARK    2  A    between atoms: N_2  and  C_5
REMARK    3  A    between atoms: C_6  and  C_7
REMARK                            x       y       z     vdW  Elec       q    Type
REMARK                         _______ _______ _______ _____ _____    ______ ____
ROOT
ATOM      1  C   UNL     1       0.955  -0.037   0.032  0.00  0.00    +0.000 C 
ATOM      2  N   UNL     1       2.412  -0.000   0.016  0.00  0.00    +0.000 N 
ATOM      3  C   UNL     1       3.006   1.151  -0.504  0.00  0.00    +0.000 C 
ATOM      4  O   UNL     1       2.421   2.134  -0.949  0.00  0.00    +0.000 OA
ENDROOT
BRANCH   2   5
ATOM      5  C   UNL     1       3.150  -1.077   0.502  0.00  0.00    +0.000 C 
ATOM      6  C   UNL     1       2.606  -2.195   1.009  0.00  0.00    +0.000 C 
BRANCH   6   7
ATOM      7  C   UNL     1       3.408  -3.326   1.519  0.00  0.00    +0.000 C 
ATOM      8  O   UNL     1       2.875  -4.330   1.974  0.00  0.00    +0.000 OA
ENDBRANCH   6   7
ENDBRANCH   2   5
TORSDOF 2
