REMARK  Name = ligand_829925
REMARK  4 active torsions:
REMARK  status: ('A' for Active; 'I' for Inactive)
REMARK    1  A    between atoms: C_1  and  N_2
REMARK    2  A    between atoms: N_2  and  N_3
REMARK    3  A    between atoms: C_4  and  C_5
REMARK    4  A    between atoms: C_5  and  C_7
REMARK                            x       y       z     vdW  Elec       q    Type
REMARK                         _______ _______ _______ _____ _____    ______ ____
ROOT
ATOM      1  N   UNL     1       3.047   1.352  -0.132  0.00  0.00    +0.000 NA
ATOM      2  C   UNL     1       4.349   1.351  -0.157  0.00  0.00    +0.000 C 
ENDROOT
BRANCH   1   4
ATOM      3  C   UNL     1       1.042   0.055   0.048  0.00  0.00    +0.000 C 
ATOM      4  N   UNL     1       2.483   0.173   0.168  0.00  0.00    +0.000 N 
ATOM      5  H   UNL     1       2.995  -0.690  -0.026  0.00  0.00    +0.000 HD
ENDBRANCH   1   4
BRANCH   2   6
ATOM      6  C   UNL     1       5.109   2.630  -0.389  0.00  0.00    +0.000 C 
ATOM      7  O   UNL     1       6.332   2.575  -0.400  0.00  0.00    +0.000 OA
BRANCH   6   8
ATOM      8  C   UNL     1       4.330   3.879  -0.571  0.00  0.00    +0.000 C 
ATOM      9  C   UNL     1       4.942   5.061  -0.744  0.00  0.00    +0.000 C 
ENDBRANCH   6   8
ENDBRANCH   2   6
TORSDOF 3
