REMARK  Name = ligand_83005
REMARK  4 active torsions:
REMARK  status: ('A' for Active; 'I' for Inactive)
REMARK    1  A    between atoms: C_1  and  C_2
REMARK    2  A    between atoms: C_4  and  C_5
REMARK    3  A    between atoms: C_5  and  C_6
REMARK    4  A    between atoms: C_6  and  N_7
REMARK                            x       y       z     vdW  Elec       q    Type
REMARK                         _______ _______ _______ _____ _____    ______ ____
ROOT
ATOM      1  C   UNL     1       1.017   0.123   0.011  0.00  0.00    +0.000 C 
ATOM      2  C   UNL     1       2.527   0.039  -0.052  0.00  0.00    +0.000 C 
ATOM      3  C   UNL     1       3.208  -1.048   0.804  0.00  0.00    +0.000 C 
ATOM      4  C   UNL     1       4.228   0.054   1.171  0.00  0.00    +0.000 C 
ATOM      5  N   UNL     1       3.190   1.053   0.804  0.00  0.00    +0.000 NA
ATOM      6  H   UNL     1       3.525   1.873   0.300  0.00  0.00    +0.000 HD
ENDROOT
BRANCH   4   7
ATOM      7  C   UNL     1       5.489   0.127   0.305  0.00  0.00    +0.000 C 
BRANCH   7   8
ATOM      8  C   UNL     1       6.404   1.250   0.794  0.00  0.00    +0.000 C 
BRANCH   8   9
ATOM      9  N   UNL     1       7.605   1.324  -0.031  0.00  0.00    +0.000 NA
ATOM     10  H   UNL     1       8.128   0.451   0.042  0.00  0.00    +0.000 HD
ATOM     11  H   UNL     1       8.219   2.051   0.335  0.00  0.00    +0.000 HD
ENDBRANCH   8   9
ENDBRANCH   7   8
ENDBRANCH   4   7
TORSDOF 3
