REMARK  Name = ligand_830267
REMARK  2 active torsions:
REMARK  status: ('A' for Active; 'I' for Inactive)
REMARK    1  A    between atoms: C_1  and  O_2
REMARK    2  A    between atoms: O_2  and  C_3
REMARK                            x       y       z     vdW  Elec       q    Type
REMARK                         _______ _______ _______ _____ _____    ______ ____
ROOT
ATOM      1  C   UNL     1       2.824  -0.451  -1.275  0.00  0.00    +0.000 C 
ATOM      2  C   UNL     1       1.952  -0.359  -2.504  0.00  0.00    +0.000 C 
ATOM      3  C   UNL     1       1.356  -1.675  -2.881  0.00  0.00    +0.000 C 
ATOM      4  N   UNL     1       1.661  -2.826  -2.382  0.00  0.00    +0.000 NA
ATOM      5  N   UNL     1       2.631  -2.933  -1.391  0.00  0.00    +0.000 NA
ATOM      6  C   UNL     1       3.155  -1.865  -0.885  0.00  0.00    +0.000 C 
ENDROOT
BRANCH   1   8
ATOM      7  C   UNL     1       1.062  -0.093   0.341  0.00  0.00    +0.000 C 
ATOM      8  O   UNL     1       2.342   0.287  -0.151  0.00  0.00    +0.000 OA
ENDBRANCH   1   8
TORSDOF 1
