REMARK  Name = ligand_83051
REMARK  2 active torsions:
REMARK  status: ('A' for Active; 'I' for Inactive)
REMARK    1  A    between atoms: C_1  and  C_2
REMARK    2  A    between atoms: N_7  and  N_8
REMARK                            x       y       z     vdW  Elec       q    Type
REMARK                         _______ _______ _______ _____ _____    ______ ____
ROOT
ATOM      1  C   UNL     1       1.050   0.112  -0.020  0.00  0.00    +0.000 C 
ATOM      2  C   UNL     1       2.526  -0.030  -0.099  0.00  0.00    +0.000 C 
ATOM      3  C   UNL     1       3.256  -1.158  -0.069  0.00  0.00    +0.000 C 
ATOM      4  C   UNL     1       4.734  -0.861  -0.231  0.00  0.00    +0.000 C 
ATOM      5  C   UNL     1       4.666   0.659  -0.428  0.00  0.00    +0.000 C 
ATOM      6  N   UNL     1       3.360   1.042  -0.262  0.00  0.00    +0.000 N 
ATOM      7  N   UNL     1       5.644   1.458  -0.727  0.00  0.00    +0.000 NA
ATOM      8  H   UNL     1       3.042   1.985  -0.422  0.00  0.00    +0.000 HD
ENDROOT
BRANCH   7   9
ATOM      9  N   UNL     1       6.862   0.892  -0.882  0.00  0.00    +0.000 N 
ATOM     10  H   UNL     1       7.508   1.583  -1.267  0.00  0.00    +0.000 HD
ATOM     11  H   UNL     1       6.849   0.118  -1.548  0.00  0.00    +0.000 HD
ENDBRANCH   7   9
TORSDOF 1
