REMARK  Name = ligand_83079
REMARK  1 active torsions:
REMARK  status: ('A' for Active; 'I' for Inactive)
REMARK    1  A    between atoms: C_1  and  C_2
REMARK                            x       y       z     vdW  Elec       q    Type
REMARK                         _______ _______ _______ _____ _____    ______ ____
ROOT
ATOM      1  C   UNL     1       0.949  -0.086   0.108  0.00  0.00    +0.000 C 
ATOM      2  C   UNL     1       2.442  -0.016   0.102  0.00  0.00    +0.000 C 
ATOM      3  C   UNL     1       3.140   1.130   0.090  0.00  0.00    +0.000 C 
ATOM      4  C   UNL     1       4.636   1.211   0.070  0.00  0.00    +0.000 C 
ATOM      5  C   UNL     1       5.407  -0.115   0.060  0.00  0.00    +0.000 C 
ATOM      6  N   UNL     1       4.579  -1.297   0.185  0.00  0.00    +0.000 N 
ATOM      7  C   UNL     1       3.217  -1.288   0.122  0.00  0.00    +0.000 C 
ATOM      8  N   UNL     1       2.576  -2.414   0.083  0.00  0.00    +0.000 NA
ATOM      9  H   UNL     1       5.059  -2.182   0.099  0.00  0.00    +0.000 HD
ATOM     10  H   UNL     1       3.242  -3.185   0.115  0.00  0.00    +0.000 HD
ENDROOT
TORSDOF 0
