REMARK  Name = ligand_830903
REMARK  6 active torsions:
REMARK  status: ('A' for Active; 'I' for Inactive)
REMARK    1  A    between atoms: C_1  and  O_2
REMARK    2  A    between atoms: O_2  and  C_3
REMARK    3  A    between atoms: C_3  and  C_4
REMARK    4  A    between atoms: C_4  and  N_5
REMARK    5  A    between atoms: C_4  and  C_6
REMARK    6  A    between atoms: C_7  and  C_8
REMARK                            x       y       z     vdW  Elec       q    Type
REMARK                         _______ _______ _______ _____ _____    ______ ____
ROOT
ATOM      1  C   UNL     1       4.407  -0.981  -0.977  0.00  0.00    +0.000 C 
ENDROOT
BRANCH   1   2
ATOM      2  N   UNL     1       4.933  -1.403   0.330  0.00  0.00    +0.000 NA
ATOM      3  H   UNL     1       4.565  -2.325   0.555  0.00  0.00    +0.000 HD
ATOM      4  H   UNL     1       4.507  -0.781   1.023  0.00  0.00    +0.000 HD
ENDBRANCH   1   2
BRANCH   1   5
ATOM      5  C   UNL     1       4.955  -1.889  -2.043  0.00  0.00    +0.000 C 
ATOM      6  C   UNL     1       5.740  -1.477  -3.051  0.00  0.00    +0.000 C 
ATOM      7  C   UNL     1       6.281  -2.378  -4.113  0.00  0.00    +0.000 C 
ENDBRANCH   1   5
BRANCH   1   8
ATOM      8  C   UNL     1       2.861  -0.980  -0.982  0.00  0.00    +0.000 C 
BRANCH   8  10
ATOM      9  C   UNL     1       0.959  -0.027   0.039  0.00  0.00    +0.000 C 
ATOM     10  O   UNL     1       2.380  -0.073   0.020  0.00  0.00    +0.000 OA
ENDBRANCH   8  10
ENDBRANCH   1   8
TORSDOF 4
