REMARK  Name = ligand_831205
REMARK  2 active torsions:
REMARK  status: ('A' for Active; 'I' for Inactive)
REMARK    1  A    between atoms: C_1  and  O_2
REMARK    2  A    between atoms: O_2  and  N_3
REMARK                            x       y       z     vdW  Elec       q    Type
REMARK                         _______ _______ _______ _____ _____    ______ ____
ROOT
ATOM      1  N   UNL     1       2.886   0.437   1.062  0.00  0.00    +0.000 NA
ATOM      2  C   UNL     1       2.466   0.346   2.285  0.00  0.00    +0.000 C 
ATOM      3  C   UNL     1       1.275  -0.440   2.764  0.00  0.00    +0.000 C 
ATOM      4  C   UNL     1       1.510  -0.460   4.268  0.00  0.00    +0.000 C 
ATOM      5  C   UNL     1       2.215   0.858   4.568  0.00  0.00    +0.000 C 
ATOM      6  C   UNL     1       3.177   1.059   3.404  0.00  0.00    +0.000 C 
ENDROOT
BRANCH   1   8
ATOM      7  C   UNL     1       2.541  -0.200  -1.127  0.00  0.00    +0.000 C 
ATOM      8  O   UNL     1       2.081  -0.335   0.213  0.00  0.00    +0.000 OA
ENDBRANCH   1   8
TORSDOF 1
