REMARK  Name = ligand_831749
REMARK  1 active torsions:
REMARK  status: ('A' for Active; 'I' for Inactive)
REMARK    1  A    between atoms: N_1  and  C_2
REMARK                            x       y       z     vdW  Elec       q    Type
REMARK                         _______ _______ _______ _____ _____    ______ ____
ROOT
ATOM      1  C   UNL     1       2.434   0.137  -0.102  0.00  0.00    +0.000 C 
ATOM      2  C   UNL     1       2.861   1.580  -0.382  0.00  0.00    +0.000 C 
ATOM      3  C   UNL     1       4.342   1.428  -0.709  0.00  0.00    +0.000 C 
ATOM      4  C   UNL     1       4.362   0.223  -1.642  0.00  0.00    +0.000 C 
ATOM      5  C   UNL     1       5.229  -0.994  -1.304  0.00  0.00    +0.000 C 
ATOM      6  O   UNL     1       4.138  -1.609  -0.570  0.00  0.00    +0.000 OA
ATOM      7  C   UNL     1       3.201  -0.663  -1.161  0.00  0.00    +0.000 C 
ENDROOT
BRANCH   1   8
ATOM      8  N   UNL     1       0.987  -0.023  -0.209  0.00  0.00    +0.000 NA
ATOM      9  H   UNL     1       0.528   0.569   0.481  0.00  0.00    +0.000 HD
ATOM     10  H   UNL     1       0.744  -0.984   0.040  0.00  0.00    +0.000 HD
ENDBRANCH   1   8
TORSDOF 1
