REMARK  Name = ligand_831908
REMARK  3 active torsions:
REMARK  status: ('A' for Active; 'I' for Inactive)
REMARK    1  A    between atoms: N_1  and  C_2
REMARK    2  A    between atoms: CA_3  and  C_4
REMARK    3  A    between atoms: C_4  and  O_5
REMARK                            x       y       z     vdW  Elec       q    Type
REMARK                         _______ _______ _______ _____ _____    ______ ____
ROOT
ATOM      1  C   UNL     1       2.330  -0.089   0.020  0.00  0.00    +0.000 A 
ATOM      2  CA  UNL     1       3.115   1.036  -0.046  0.00  0.00    +0.000 A 
ATOM      3  N   UNL     1       4.421   0.602  -0.127  0.00  0.00    +0.000 N 
ATOM      4  C   UNL     1       4.463  -0.767  -0.087  0.00  0.00    +0.000 A 
ATOM      5  C   UNL     1       3.167  -1.224   0.002  0.00  0.00    +0.000 A 
ATOM      6  H   UNL     1       5.220   1.222  -0.186  0.00  0.00    +0.000 HD
ENDROOT
BRANCH   1   7
ATOM      7  N   UNL     1       0.992  -0.114   0.084  0.00  0.00    +0.000 N 
ATOM      8  H   UNL     1       0.430   0.709  -0.103  0.00  0.00    +0.000 HD
ATOM      9  H   UNL     1       0.483  -0.983  -0.041  0.00  0.00    +0.000 HD
ENDBRANCH   1   7
BRANCH   2  10
ATOM     10  C   UNL     1       2.784   2.479  -0.076  0.00  0.00    +0.000 C 
BRANCH  10  11
ATOM     11  O   UNL     1       3.838   3.175   0.577  0.00  0.00    +0.000 OA
ATOM     12  H   UNL     1       3.748   2.959   1.522  0.00  0.00    +0.000 HD
ENDBRANCH  10  11
ENDBRANCH   2  10
TORSDOF 3
