REMARK  Name = ligand_831983
REMARK  1 active torsions:
REMARK  status: ('A' for Active; 'I' for Inactive)
REMARK    1  A    between atoms: N_1  and  C_2
REMARK                            x       y       z     vdW  Elec       q    Type
REMARK                         _______ _______ _______ _____ _____    ______ ____
ROOT
ATOM      1  C   UNL     1       2.486   0.044  -0.111  0.00  0.00    +0.000 C 
ATOM      2  C   UNL     1       3.107   1.225  -0.185  0.00  0.00    +0.000 C 
ATOM      3  C   UNL     1       4.573   1.284  -0.068  0.00  0.00    +0.000 C 
ATOM      4  O   UNL     1       5.117   2.390  -0.012  0.00  0.00    +0.000 OA
ATOM      5  C   UNL     1       5.384   0.017  -0.033  0.00  0.00    +0.000 C 
ATOM      6  C   UNL     1       4.595  -1.272  -0.135  0.00  0.00    +0.000 C 
ATOM      7  N   UNL     1       3.171  -1.117   0.100  0.00  0.00    +0.000 N 
ATOM      8  H   UNL     1       2.627  -1.925  -0.196  0.00  0.00    +0.000 HD
ENDROOT
BRANCH   1   9
ATOM      9  N   UNL     1       1.127  -0.060  -0.221  0.00  0.00    +0.000 N 
ATOM     10  H   UNL     1       0.639   0.814  -0.043  0.00  0.00    +0.000 HD
ATOM     11  H   UNL     1       0.765  -0.808   0.366  0.00  0.00    +0.000 HD
ENDBRANCH   1   9
TORSDOF 1
