REMARK  Name = ligand_83232
REMARK  3 active torsions:
REMARK  status: ('A' for Active; 'I' for Inactive)
REMARK    1  A    between atoms: C_1  and  C_2
REMARK    2  A    between atoms: C_4  and  C_6
REMARK    3  A    between atoms: N_7  and  N_8
REMARK                            x       y       z     vdW  Elec       q    Type
REMARK                         _______ _______ _______ _____ _____    ______ ____
ROOT
ATOM      1  C   UNL     1       0.931   0.047   0.080  0.00  0.00    +0.000 C 
ATOM      2  C   UNL     1       2.442  -0.039   0.028  0.00  0.00    +0.000 C 
ATOM      3  C   UNL     1       3.105  -1.132   0.892  0.00  0.00    +0.000 C 
ATOM      4  C   UNL     1       4.122  -0.038   1.279  0.00  0.00    +0.000 C 
ATOM      5  N   UNL     1       3.090   0.971   0.898  0.00  0.00    +0.000 NA
ATOM      6  H   UNL     1       3.490   1.762   0.384  0.00  0.00    +0.000 HD
ENDROOT
BRANCH   4   7
ATOM      7  C   UNL     1       5.439   0.049   0.439  0.00  0.00    +0.000 C 
ATOM      8  N   UNL     1       5.747   1.127  -0.219  0.00  0.00    +0.000 NA
BRANCH   8   9
ATOM      9  N   UNL     1       6.897   1.032  -0.924  0.00  0.00    +0.000 N 
ATOM     10  H   UNL     1       7.170   1.960  -1.258  0.00  0.00    +0.000 HD
ATOM     11  H   UNL     1       7.683   0.683  -0.373  0.00  0.00    +0.000 HD
ENDBRANCH   8   9
ENDBRANCH   4   7
TORSDOF 2
