REMARK  Name = ligand_832479
REMARK  2 active torsions:
REMARK  status: ('A' for Active; 'I' for Inactive)
REMARK    1  A    between atoms: N_1  and  C_2
REMARK    2  A    between atoms: C_2  and  C_3
REMARK                            x       y       z     vdW  Elec       q    Type
REMARK                         _______ _______ _______ _____ _____    ______ ____
ROOT
ATOM      1  C   UNL     1       2.818   0.733  -1.119  0.00  0.00    +0.000 C 
ATOM      2  C   UNL     1       2.847   2.072  -1.122  0.00  0.00    +0.000 C 
ATOM      3  C   UNL     1       3.546   2.588  -2.293  0.00  0.00    +0.000 C 
ATOM      4  C   UNL     1       3.082   2.245  -3.682  0.00  0.00    +0.000 C 
ATOM      5  C   UNL     1       4.010   1.302  -2.972  0.00  0.00    +0.000 C 
ATOM      6  O   UNL     1       3.435   0.157  -2.249  0.00  0.00    +0.000 OA
ENDROOT
BRANCH   1   7
ATOM      7  C   UNL     1       2.280  -0.181  -0.070  0.00  0.00    +0.000 C 
BRANCH   7   8
ATOM      8  N   UNL     1       1.141  -0.964  -0.541  0.00  0.00    +0.000 NA
ATOM      9  H   UNL     1       0.899  -1.652   0.171  0.00  0.00    +0.000 HD
ATOM     10  H   UNL     1       1.441  -1.496  -1.357  0.00  0.00    +0.000 HD
ENDBRANCH   7   8
ENDBRANCH   1   7
TORSDOF 2
