REMARK  Name = ligand_832795
REMARK  2 active torsions:
REMARK  status: ('A' for Active; 'I' for Inactive)
REMARK    1  A    between atoms: N_1  and  C_2
REMARK    2  A    between atoms: C_2  and  C_3
REMARK                            x       y       z     vdW  Elec       q    Type
REMARK                         _______ _______ _______ _____ _____    ______ ____
ROOT
ATOM      1  C   UNL     1       2.782   0.645  -1.314  0.00  0.00    +0.000 C 
ATOM      2  O   UNL     1       2.745   2.059  -1.113  0.00  0.00    +0.000 OA
ATOM      3  C   UNL     1       3.069   2.746  -2.317  0.00  0.00    +0.000 C 
ATOM      4  C   UNL     1       4.433   2.311  -2.831  0.00  0.00    +0.000 C 
ATOM      5  C   UNL     1       4.497   0.795  -2.904  0.00  0.00    +0.000 C 
ATOM      6  O   UNL     1       4.104   0.223  -1.659  0.00  0.00    +0.000 OA
ENDROOT
BRANCH   1   7
ATOM      7  C   UNL     1       2.360  -0.052   0.000  0.00  0.00    +0.000 C 
BRANCH   7   8
ATOM      8  N   UNL     1       2.331  -1.519  -0.105  0.00  0.00    +0.000 NA
ATOM      9  H   UNL     1       2.167  -1.913   0.819  0.00  0.00    +0.000 HD
ATOM     10  H   UNL     1       3.271  -1.820  -0.381  0.00  0.00    +0.000 HD
ENDBRANCH   7   8
ENDBRANCH   1   7
TORSDOF 2
