REMARK  Name = ligand_832856
REMARK  2 active torsions:
REMARK  status: ('A' for Active; 'I' for Inactive)
REMARK    1  A    between atoms: C_2  and  C_3
REMARK    2  A    between atoms: C_3  and  C_4
REMARK                            x       y       z     vdW  Elec       q    Type
REMARK                         _______ _______ _______ _____ _____    ______ ____
ROOT
ATOM      1  C   UNL     1       4.269   0.757  -1.152  0.00  0.00    +0.000 A 
ATOM      2  C   UNL     1       4.267   2.078  -1.543  0.00  0.00    +0.000 A 
ATOM      3  N   UNL     1       4.779   2.192  -2.810  0.00  0.00    +0.000 NA
ATOM      4  C   UNL     1       5.076   0.957  -3.136  0.00  0.00    +0.000 A 
ATOM      5  O   UNL     1       4.795   0.024  -2.183  0.00  0.00    +0.000 OA
ENDROOT
BRANCH   1   6
ATOM      6  C   UNL     1       3.851   0.029   0.065  0.00  0.00    +0.000 C 
BRANCH   6   8
ATOM      7  N   UNL     1       5.231   1.060   2.248  0.00  0.00    +0.000 NA
ATOM      8  C   UNL     1       4.605   0.592   1.258  0.00  0.00    +0.000 C 
ENDBRANCH   6   8
ENDBRANCH   1   6
TORSDOF 2
