REMARK  Name = ligand_833130
REMARK  5 active torsions:
REMARK  status: ('A' for Active; 'I' for Inactive)
REMARK    1  A    between atoms: N_1  and  C_2
REMARK    2  A    between atoms: C_2  and  C_3
REMARK    3  A    between atoms: C_2  and  C_7
REMARK    4  A    between atoms: C_3  and  C_4
REMARK    5  A    between atoms: N_5  and  O_6
REMARK                            x       y       z     vdW  Elec       q    Type
REMARK                         _______ _______ _______ _____ _____    ______ ____
ROOT
ATOM      1  C   UNL     1       2.493  -0.059   0.062  0.00  0.00    +0.000 C 
ENDROOT
BRANCH   1   2
ATOM      2  N   UNL     1       1.035   0.049   0.004  0.00  0.00    +0.000 NA
ATOM      3  H   UNL     1       0.614  -0.609   0.659  0.00  0.00    +0.000 HD
ATOM      4  H   UNL     1       0.708  -0.248  -0.915  0.00  0.00    +0.000 HD
ENDBRANCH   1   2
BRANCH   1   5
ATOM      5  C   UNL     1       3.064   1.045  -0.785  0.00  0.00    +0.000 C 
ATOM      6  C   UNL     1       3.881   2.009  -0.341  0.00  0.00    +0.000 C 
ENDBRANCH   1   5
BRANCH   1   7
ATOM      7  C   UNL     1       3.006  -1.418  -0.432  0.00  0.00    +0.000 C 
BRANCH   7   8
ATOM      8  C   UNL     1       2.497  -2.540   0.429  0.00  0.00    +0.000 C 
ATOM      9  N   UNL     1       1.752  -3.468  -0.077  0.00  0.00    +0.000 NA
BRANCH   9  10
ATOM     10  O   UNL     1       1.419  -4.383   0.927  0.00  0.00    +0.000 OA
ATOM     11  H   UNL     1       0.903  -5.051   0.440  0.00  0.00    +0.000 HD
ENDBRANCH   9  10
ENDBRANCH   7   8
ENDBRANCH   1   7
TORSDOF 5
