REMARK  Name = ligand_833372
REMARK  6 active torsions:
REMARK  status: ('A' for Active; 'I' for Inactive)
REMARK    1  A    between atoms: N_1  and  C_2
REMARK    2  A    between atoms: C_2  and  C_3
REMARK    3  A    between atoms: C_3  and  O_4
REMARK    4  A    between atoms: O_4  and  C_5
REMARK    5  A    between atoms: C_6  and  C_7
REMARK    6  A    between atoms: C_7  and  O_8
REMARK                            x       y       z     vdW  Elec       q    Type
REMARK                         _______ _______ _______ _____ _____    ______ ____
ROOT
ATOM      1  O   UNL     1       4.478   0.786  -1.178  0.00  0.00    +0.000 OA
ENDROOT
BRANCH   1   2
ATOM      2  C   UNL     1       5.105   1.527  -2.144  0.00  0.00    +0.000 C 
ATOM      3  C   UNL     1       6.301   1.175  -2.615  0.00  0.00    +0.000 C 
BRANCH   3   4
ATOM      4  C   UNL     1       7.043   1.937  -3.661  0.00  0.00    +0.000 C 
BRANCH   4   5
ATOM      5  O   UNL     1       8.292   2.353  -3.135  0.00  0.00    +0.000 OA
ATOM      6  H   UNL     1       8.099   2.955  -2.396  0.00  0.00    +0.000 HD
ENDBRANCH   4   5
ENDBRANCH   3   4
ENDBRANCH   1   2
BRANCH   1   7
ATOM      7  C   UNL     1       3.049   0.856  -1.253  0.00  0.00    +0.000 C 
BRANCH   7   8
ATOM      8  C   UNL     1       2.476  -0.020  -0.134  0.00  0.00    +0.000 C 
BRANCH   8   9
ATOM      9  N   UNL     1       1.013  -0.029  -0.111  0.00  0.00    +0.000 NA
ATOM     10  H   UNL     1       0.699  -0.635   0.648  0.00  0.00    +0.000 HD
ATOM     11  H   UNL     1       0.660  -0.452  -0.969  0.00  0.00    +0.000 HD
ENDBRANCH   8   9
ENDBRANCH   7   8
ENDBRANCH   1   7
TORSDOF 6
