REMARK  Name = ligand_83363
REMARK  4 active torsions:
REMARK  status: ('A' for Active; 'I' for Inactive)
REMARK    1  A    between atoms: C_1  and  C_2
REMARK    2  A    between atoms: C_2  and  C_3
REMARK    3  A    between atoms: C_3  and  C_4
REMARK    4  A    between atoms: C_4  and  N_5
REMARK                            x       y       z     vdW  Elec       q    Type
REMARK                         _______ _______ _______ _____ _____    ______ ____
ROOT
ATOM      1  C   UNL     1      -1.715   0.065  -0.734  0.00  0.00    +0.000 C 
ATOM      2  C   UNL     1      -0.695  -0.015   0.406  0.00  0.00    +0.000 C 
ATOM      3  C   UNL     1       0.396  -1.115   0.225  0.00  0.00    +0.000 C 
ATOM      4  C   UNL     1       1.286  -0.062  -0.462  0.00  0.00    +0.000 C 
ATOM      5  C   UNL     1       0.456   1.027   0.244  0.00  0.00    +0.000 C 
ENDROOT
BRANCH   2   6
ATOM      6  C   UNL     1      -1.340   0.039   1.802  0.00  0.00    +0.000 C 
BRANCH   6   7
ATOM      7  C   UNL     1      -2.300  -1.126   2.046  0.00  0.00    +0.000 C 
BRANCH   7   8
ATOM      8  N   UNL     1      -2.859  -1.049   3.392  0.00  0.00    +0.000 NA
ATOM      9  H   UNL     1      -2.114  -1.154   4.080  0.00  0.00    +0.000 HD
ATOM     10  H   UNL     1      -3.496  -1.831   3.538  0.00  0.00    +0.000 HD
ENDBRANCH   7   8
ENDBRANCH   6   7
ENDBRANCH   2   6
TORSDOF 3
