REMARK  Name = ligand_834402
REMARK  0 active torsions:
REMARK  status: ('A' for Active; 'I' for Inactive)
REMARK                            x       y       z     vdW  Elec       q    Type
REMARK                         _______ _______ _______ _____ _____    ______ ____
ROOT
ATOM      1  O   UNL     1       1.244  -0.424   0.822  0.00  0.00    +0.000 OA
ATOM      2  C   UNL     1       2.306   0.023   0.440  0.00  0.00    +0.000 C 
ATOM      3  C   UNL     1       3.100   1.299   0.773  0.00  0.00    +0.000 C 
ATOM      4  C   UNL     1       3.889   1.057  -0.542  0.00  0.00    +0.000 C 
ATOM      5  C   UNL     1       5.378   0.715  -0.440  0.00  0.00    +0.000 C 
ATOM      6  N   UNL     1       5.630  -0.545  -0.292  0.00  0.00    +0.000 NA
ATOM      7  O   UNL     1       4.392  -1.276  -0.255  0.00  0.00    +0.000 OA
ATOM      8  C   UNL     1       3.324  -0.375  -0.647  0.00  0.00    +0.000 C 
ENDROOT
TORSDOF 0
