REMARK  Name = ligand_834512
REMARK  0 active torsions:
REMARK  status: ('A' for Active; 'I' for Inactive)
REMARK                            x       y       z     vdW  Elec       q    Type
REMARK                         _______ _______ _______ _____ _____    ______ ____
ROOT
ATOM      1  O   UNL     1       1.365   0.012  -0.769  0.00  0.00    +0.000 OA
ATOM      2  C   UNL     1       2.304   0.032   0.007  0.00  0.00    +0.000 C 
ATOM      3  C   UNL     1       2.966  -1.225   0.508  0.00  0.00    +0.000 C 
ATOM      4  C   UNL     1       4.114  -1.152   1.218  0.00  0.00    +0.000 C 
ATOM      5  C   UNL     1       4.730   0.177   1.662  0.00  0.00    +0.000 C 
ATOM      6  C   UNL     1       3.711   1.288   1.630  0.00  0.00    +0.000 C 
ATOM      7  C   UNL     1       3.282   2.407   0.489  0.00  0.00    +0.000 C 
ATOM      8  N   UNL     1       2.963   1.101   0.476  0.00  0.00    +0.000 N 
ENDROOT
TORSDOF 0
