REMARK  Name = ligand_834586
REMARK  0 active torsions:
REMARK  status: ('A' for Active; 'I' for Inactive)
REMARK                            x       y       z     vdW  Elec       q    Type
REMARK                         _______ _______ _______ _____ _____    ______ ____
ROOT
ATOM      1  O   UNL     1       1.175   0.031  -0.129  0.00  0.00    +0.000 OA
ATOM      2  C   UNL     1       2.404   0.056  -0.029  0.00  0.00    +0.000 C 
ATOM      3  C   UNL     1       3.169   1.354  -0.166  0.00  0.00    +0.000 C 
ATOM      4  C   UNL     1       3.710   1.778   1.191  0.00  0.00    +0.000 C 
ATOM      5  C   UNL     1       5.052   1.132   1.550  0.00  0.00    +0.000 C 
ATOM      6  N   UNL     1       5.234  -0.276   1.198  0.00  0.00    +0.000 NA
ATOM      7  C   UNL     1       4.073  -1.127   1.441  0.00  0.00    +0.000 C 
ATOM      8  C   UNL     1       3.190  -1.210   0.202  0.00  0.00    +0.000 C 
ATOM      9  H   UNL     1       6.036  -0.635   1.720  0.00  0.00    +0.000 HD
ENDROOT
TORSDOF 0
