REMARK  Name = ligand_834759
REMARK  1 active torsions:
REMARK  status: ('A' for Active; 'I' for Inactive)
REMARK    1  A    between atoms: O_1  and  C_2
REMARK                            x       y       z     vdW  Elec       q    Type
REMARK                         _______ _______ _______ _____ _____    ______ ____
ROOT
ATOM      1  C   UNL     1       2.448  -0.092   0.061  0.00  0.00    +0.000 A 
ATOM      2  C   UNL     1       3.232   1.031  -0.143  0.00  0.00    +0.000 A 
ATOM      3  N   UNL     1       4.435   0.506  -0.501  0.00  0.00    +0.000 N 
ATOM      4  C   UNL     1       5.728   0.605   0.099  0.00  0.00    +0.000 C 
ATOM      5  C   UNL     1       5.768  -0.933   0.119  0.00  0.00    +0.000 C 
ATOM      6  C   UNL     1       4.364  -0.832  -0.326  0.00  0.00    +0.000 A 
ATOM      7  N   UNL     1       3.192  -1.247   0.063  0.00  0.00    +0.000 NA
ENDROOT
BRANCH   1   8
ATOM      8  O   UNL     1       1.138  -0.041   0.332  0.00  0.00    +0.000 OA
ATOM      9  H   UNL     1       0.808   0.860   0.201  0.00  0.00    +0.000 HD
ENDBRANCH   1   8
TORSDOF 1
