REMARK  Name = ligand_83559
REMARK  4 active torsions:
REMARK  status: ('A' for Active; 'I' for Inactive)
REMARK    1  A    between atoms: C_1  and  C_2
REMARK    2  A    between atoms: C_2  and  C_5
REMARK    3  A    between atoms: C_5  and  N_6
REMARK    4  A    between atoms: C_5  and  C_7
REMARK                            x       y       z     vdW  Elec       q    Type
REMARK                         _______ _______ _______ _____ _____    ______ ____
ROOT
ATOM      1  C   UNL     1       2.677  -0.099   1.663  0.00  0.00    +0.000 C 
ENDROOT
BRANCH   1   3
ATOM      2  C   UNL     1       0.936   0.042  -0.211  0.00  0.00    +0.000 C 
ATOM      3  C   UNL     1       2.409  -0.043   0.149  0.00  0.00    +0.000 C 
ATOM      4  C   UNL     1       3.359   0.664  -0.805  0.00  0.00    +0.000 C 
ATOM      5  N   UNL     1       3.250  -0.794  -0.810  0.00  0.00    +0.000 NA
ATOM      6  H   UNL     1       4.062  -1.208  -0.345  0.00  0.00    +0.000 HD
ENDBRANCH   1   3
BRANCH   1   7
ATOM      7  N   UNL     1       2.065  -1.292   2.239  0.00  0.00    +0.000 NA
ATOM      8  H   UNL     1       2.350  -2.094   1.678  0.00  0.00    +0.000 HD
ATOM      9  H   UNL     1       1.055  -1.228   2.146  0.00  0.00    +0.000 HD
ENDBRANCH   1   7
BRANCH   1  10
ATOM     10  C   UNL     1       4.125  -0.161   1.936  0.00  0.00    +0.000 C 
ATOM     11  C   UNL     1       5.285  -0.241   2.240  0.00  0.00    +0.000 C 
ENDBRANCH   1  10
TORSDOF 3
