REMARK  Name = ligand_83580
REMARK  2 active torsions:
REMARK  status: ('A' for Active; 'I' for Inactive)
REMARK    1  A    between atoms: C_1  and  C_2
REMARK    2  A    between atoms: C_7  and  N_8
REMARK                            x       y       z     vdW  Elec       q    Type
REMARK                         _______ _______ _______ _____ _____    ______ ____
ROOT
ATOM      1  C   UNL     1       1.049   0.153   0.381  0.00  0.00    +0.000 C 
ATOM      2  C   UNL     1       2.550   0.082   0.069  0.00  0.00    +0.000 C 
ATOM      3  C   UNL     1       2.877   0.905  -1.190  0.00  0.00    +0.000 C 
ATOM      4  N   UNL     1       2.513   0.039  -2.335  0.00  0.00    +0.000 NA
ATOM      5  C   UNL     1       3.598  -0.783  -2.854  0.00  0.00    +0.000 C 
ATOM      6  C   UNL     1       2.680  -1.353  -1.814  0.00  0.00    +0.000 C 
ATOM      7  C   UNL     1       3.042  -1.314  -0.354  0.00  0.00    +0.000 C 
ENDROOT
BRANCH   7   8
ATOM      8  N   UNL     1       2.514  -2.437   0.400  0.00  0.00    +0.000 NA
ATOM      9  H   UNL     1       1.497  -2.455   0.328  0.00  0.00    +0.000 HD
ATOM     10  H   UNL     1       2.718  -2.305   1.390  0.00  0.00    +0.000 HD
ENDBRANCH   7   8
TORSDOF 1
