REMARK  Name = ligand_836068
REMARK  6 active torsions:
REMARK  status: ('A' for Active; 'I' for Inactive)
REMARK    1  A    between atoms: O_1  and  C_2
REMARK    2  A    between atoms: C_2  and  C_3
REMARK    3  A    between atoms: C_3  and  C_4
REMARK    4  A    between atoms: C_4  and  N_5
REMARK    5  A    between atoms: N_5  and  C_6
REMARK    6  A    between atoms: C_6  and  C_7
REMARK                            x       y       z     vdW  Elec       q    Type
REMARK                         _______ _______ _______ _____ _____    ______ ____
ROOT
ATOM      1  C   UNL     1       4.513   0.072   1.415  0.00  0.00    +0.000 C 
ENDROOT
BRANCH   1   2
ATOM      2  N   UNL     1       5.010   0.214   2.787  0.00  0.00    +0.000 NA
ATOM      3  H   UNL     1       4.685  -0.582   3.337  0.00  0.00    +0.000 HD
BRANCH   2   4
ATOM      4  C   UNL     1       6.470   0.204   2.785  0.00  0.00    +0.000 C 
BRANCH   4   5
ATOM      5  C   UNL     1       6.990   0.328   4.182  0.00  0.00    +0.000 C 
ATOM      6  C   UNL     1       7.779  -0.584   4.761  0.00  0.00    +0.000 C 
ENDBRANCH   4   5
ENDBRANCH   2   4
ENDBRANCH   1   2
BRANCH   1   7
ATOM      7  C   UNL     1       2.984   0.071   1.393  0.00  0.00    +0.000 C 
BRANCH   7   8
ATOM      8  C   UNL     1       2.466  -0.071  -0.033  0.00  0.00    +0.000 C 
BRANCH   8   9
ATOM      9  O   UNL     1       2.925  -1.297  -0.588  0.00  0.00    +0.000 OA
ATOM     10  H   UNL     1       2.567  -1.356  -1.491  0.00  0.00    +0.000 HD
ENDBRANCH   8   9
ENDBRANCH   7   8
ENDBRANCH   1   7
TORSDOF 6
