REMARK  Name = ligand_836249
REMARK  4 active torsions:
REMARK  status: ('A' for Active; 'I' for Inactive)
REMARK    1  A    between atoms: O_1  and  C_2
REMARK    2  A    between atoms: C_2  and  C_3
REMARK    3  A    between atoms: N_4  and  N_5
REMARK    4  A    between atoms: C_6  and  C_7
REMARK                            x       y       z     vdW  Elec       q    Type
REMARK                         _______ _______ _______ _____ _____    ______ ____
ROOT
ATOM      1  C   UNL     1       3.017   1.473  -0.404  0.00  0.00    +0.000 C 
ATOM      2  N   UNL     1       4.296   1.677  -0.430  0.00  0.00    +0.000 NA
ENDROOT
BRANCH   2   3
ATOM      3  N   UNL     1       4.593   2.975  -0.840  0.00  0.00    +0.000 NA
ATOM      4  C   UNL     1       5.872   3.138  -0.907  0.00  0.00    +0.000 C 
BRANCH   4   5
ATOM      5  C   UNL     1       6.420   4.463  -1.325  0.00  0.00    +0.000 C 
ATOM      6  O   UNL     1       7.627   4.637  -1.371  0.00  0.00    +0.000 OA
ENDBRANCH   4   5
ENDBRANCH   2   3
BRANCH   1   7
ATOM      7  C   UNL     1       2.454   0.147   0.039  0.00  0.00    +0.000 C 
BRANCH   7   8
ATOM      8  O   UNL     1       1.617  -0.380  -0.975  0.00  0.00    +0.000 OA
ATOM      9  H   UNL     1       1.351  -1.271  -0.687  0.00  0.00    +0.000 HD
ENDBRANCH   7   8
ENDBRANCH   1   7
TORSDOF 4
