REMARK  Name = ligand_83630
REMARK  5 active torsions:
REMARK  status: ('A' for Active; 'I' for Inactive)
REMARK    1  A    between atoms: C_1  and  C_2
REMARK    2  A    between atoms: C_3  and  N_4
REMARK    3  A    between atoms: C_5  and  C_6
REMARK    4  A    between atoms: C_5  and  C_7
REMARK    5  A    between atoms: C_7  and  N_8
REMARK                            x       y       z     vdW  Elec       q    Type
REMARK                         _______ _______ _______ _____ _____    ______ ____
ROOT
ATOM      1  C   UNL     1       1.383  -0.047  -0.048  0.00  0.00    +0.000 C 
ATOM      2  C   UNL     1       2.822   0.245   0.218  0.00  0.00    +0.000 C 
ATOM      3  C   UNL     1       3.677   0.838  -0.874  0.00  0.00    +0.000 C 
ATOM      4  C   UNL     1       3.953  -0.561  -0.389  0.00  0.00    +0.000 C 
ATOM      5  C   UNL     1       3.741  -1.738  -1.299  0.00  0.00    +0.000 C 
ENDROOT
BRANCH   3   6
ATOM      6  N   UNL     1       4.629   1.897  -0.554  0.00  0.00    +0.000 NA
ATOM      7  H   UNL     1       5.179   1.664   0.271  0.00  0.00    +0.000 HD
ATOM      8  H   UNL     1       4.133   2.757  -0.323  0.00  0.00    +0.000 HD
ENDBRANCH   3   6
BRANCH   4   9
ATOM      9  C   UNL     1       4.726  -1.771  -2.477  0.00  0.00    +0.000 C 
BRANCH   9  10
ATOM     10  N   UNL     1       6.125  -1.795  -2.047  0.00  0.00    +0.000 NA
ATOM     11  H   UNL     1       6.324  -0.931  -1.539  0.00  0.00    +0.000 HD
ATOM     12  H   UNL     1       6.723  -1.762  -2.872  0.00  0.00    +0.000 HD
ENDBRANCH   9  10
ENDBRANCH   4   9
TORSDOF 3
