REMARK  Name = ligand_836905
REMARK  4 active torsions:
REMARK  status: ('A' for Active; 'I' for Inactive)
REMARK    1  A    between atoms: O_1  and  N_2
REMARK    2  A    between atoms: C_3  and  C_4
REMARK    3  A    between atoms: C_4  and  C_5
REMARK    4  A    between atoms: C_6  and  C_7
REMARK                            x       y       z     vdW  Elec       q    Type
REMARK                         _______ _______ _______ _____ _____    ______ ____
ROOT
ATOM      1  C   UNL     1       4.558   1.104   0.004  0.00  0.00    +0.000 C 
ENDROOT
BRANCH   1   3
ATOM      2  N   UNL     1       2.411   0.427  -0.928  0.00  0.00    +0.000 NA
ATOM      3  C   UNL     1       3.051   1.069  -0.005  0.00  0.00    +0.000 C 
BRANCH   2   4
ATOM      4  O   UNL     1       1.037   0.516  -0.676  0.00  0.00    +0.000 OA
ATOM      5  H   UNL     1       0.656  -0.015  -1.400  0.00  0.00    +0.000 HD
ENDBRANCH   2   4
ENDBRANCH   1   3
BRANCH   1   6
ATOM      6  C   UNL     1       5.034   2.523  -0.088  0.00  0.00    +0.000 C 
ATOM      7  C   UNL     1       5.814   3.100   0.838  0.00  0.00    +0.000 C 
BRANCH   7   8
ATOM      8  C   UNL     1       6.284   4.433   0.696  0.00  0.00    +0.000 C 
ATOM      9  C   UNL     1       6.709   5.551   0.594  0.00  0.00    +0.000 C 
ENDBRANCH   7   8
ENDBRANCH   1   6
TORSDOF 4
