REMARK  Name = ligand_837163
REMARK  1 active torsions:
REMARK  status: ('A' for Active; 'I' for Inactive)
REMARK    1  A    between atoms: C_3  and  C_4
REMARK                            x       y       z     vdW  Elec       q    Type
REMARK                         _______ _______ _______ _____ _____    ______ ____
ROOT
ATOM      1  C   UNL     1      -1.502  -0.945  -1.226  0.00  0.00    +0.000 A 
ATOM      2  N   UNL     1      -0.993  -0.900  -2.439  0.00  0.00    +0.000 NA
ATOM      3  C   UNL     1      -1.912  -1.483  -3.297  0.00  0.00    +0.000 A 
ATOM      4  N   UNL     1      -3.075  -1.945  -2.836  0.00  0.00    +0.000 NA
ATOM      5  S   UNL     1      -3.057  -1.668  -1.185  0.00  0.00    +0.000 S 
ENDROOT
BRANCH   1   8
ATOM      6  C   UNL     1       0.020   0.857  -0.106  0.00  0.00    +0.000 C 
ATOM      7  C   UNL     1       0.724  -0.447   0.051  0.00  0.00    +0.000 C 
ATOM      8  C   UNL     1      -0.792  -0.415   0.015  0.00  0.00    +0.000 C 
ENDBRANCH   1   8
TORSDOF 1
