REMARK  Name = ligand_837511
REMARK  2 active torsions:
REMARK  status: ('A' for Active; 'I' for Inactive)
REMARK    1  A    between atoms: C_1  and  C_2
REMARK    2  A    between atoms: C_6  and  C_7
REMARK                            x       y       z     vdW  Elec       q    Type
REMARK                         _______ _______ _______ _____ _____    ______ ____
ROOT
ATOM      1  C   UNL     1       0.980  -0.089  -0.040  0.00  0.00    +0.000 C 
ATOM      2  C   UNL     1       2.472  -0.083  -0.036  0.00  0.00    +0.000 A 
ATOM      3  C   UNL     1       3.246   1.064  -0.035  0.00  0.00    +0.000 A 
ATOM      4  S   UNL     1       4.924   0.736  -0.024  0.00  0.00    +0.000 S 
ATOM      5  C   UNL     1       4.645  -0.950  -0.024  0.00  0.00    +0.000 A 
ATOM      6  C   UNL     1       3.302  -1.255  -0.034  0.00  0.00    +0.000 A 
ENDROOT
BRANCH   6   7
ATOM      7  C   UNL     1       2.831  -2.607  -0.040  0.00  0.00    +0.000 C 
ATOM      8  C   UNL     1       2.440  -3.743  -0.047  0.00  0.00    +0.000 C 
ENDBRANCH   6   7
TORSDOF 1
