REMARK  Name = ligand_837508
REMARK  1 active torsions:
REMARK  status: ('A' for Active; 'I' for Inactive)
REMARK    1  A    between atoms: C_1  and  C_2
REMARK                            x       y       z     vdW  Elec       q    Type
REMARK                         _______ _______ _______ _____ _____    ______ ____
ROOT
ATOM      1  C   UNL     1       1.058   0.013   0.086  0.00  0.00    +0.000 C 
ATOM      2  C   UNL     1       2.574  -0.006   0.085  0.00  0.00    +0.000 C 
ATOM      3  C   UNL     1       3.154  -1.267   0.757  0.00  0.00    +0.000 C 
ATOM      4  O   UNL     1       4.454  -0.935   1.249  0.00  0.00    +0.000 OA
ATOM      5  S   UNL     1       4.675   0.676   1.309  0.00  0.00    +0.000 S 
ATOM      6  O   UNL     1       4.909   1.109   2.661  0.00  0.00    +0.000 OA
ATOM      7  O   UNL     1       5.518   1.060   0.199  0.00  0.00    +0.000 OA
ATOM      8  N   UNL     1       3.102   1.139   0.868  0.00  0.00    +0.000 NA
ATOM      9  H   UNL     1       3.159   2.012   0.343  0.00  0.00    +0.000 HD
ENDROOT
TORSDOF 0
