REMARK  Name = ligand_837549
REMARK  2 active torsions:
REMARK  status: ('A' for Active; 'I' for Inactive)
REMARK    1  A    between atoms: C_1  and  C_2
REMARK    2  A    between atoms: N_7  and  O_8
REMARK                            x       y       z     vdW  Elec       q    Type
REMARK                         _______ _______ _______ _____ _____    ______ ____
ROOT
ATOM      1  C   UNL     1       1.010   0.035  -0.007  0.00  0.00    +0.000 C 
ATOM      2  C   UNL     1       2.498  -0.031  -0.006  0.00  0.00    +0.000 A 
ATOM      3  C   UNL     1       3.317   1.084  -0.072  0.00  0.00    +0.000 A 
ATOM      4  S   UNL     1       4.946   0.592  -0.026  0.00  0.00    +0.000 S 
ATOM      5  N   UNL     1       4.630  -1.023   0.087  0.00  0.00    +0.000 NA
ATOM      6  C   UNL     1       3.313  -1.224   0.071  0.00  0.00    +0.000 A 
ATOM      7  N   UNL     1       2.813  -2.491   0.156  0.00  0.00    +0.000 N 
ATOM      8  H   UNL     1       3.522  -3.210   0.008  0.00  0.00    +0.000 HD
ENDROOT
BRANCH   7   9
ATOM      9  O   UNL     1       1.594  -2.810  -0.445  0.00  0.00    +0.000 OA
ATOM     10  H   UNL     1       0.967  -2.763   0.302  0.00  0.00    +0.000 HD
ENDBRANCH   7   9
TORSDOF 1
