REMARK  Name = ligand_837990
REMARK  3 active torsions:
REMARK  status: ('A' for Active; 'I' for Inactive)
REMARK    1  A    between atoms: C_1  and  C_2
REMARK    2  A    between atoms: C_2  and  C_3
REMARK    3  A    between atoms: C_3  and  C_4
REMARK                            x       y       z     vdW  Elec       q    Type
REMARK                         _______ _______ _______ _____ _____    ______ ____
ROOT
ATOM      1  C   UNL     1       4.491  -0.843  -1.232  0.00  0.00    +0.000 A 
ATOM      2  N   UNL     1       5.235  -1.410  -0.306  0.00  0.00    +0.000 NA
ATOM      3  C   UNL     1       6.562  -1.260  -0.674  0.00  0.00    +0.000 A 
ATOM      4  N   UNL     1       6.883  -0.631  -1.803  0.00  0.00    +0.000 NA
ATOM      5  S   UNL     1       5.436  -0.164  -2.499  0.00  0.00    +0.000 S 
ENDROOT
BRANCH   1   6
ATOM      6  C   UNL     1       2.998  -0.792  -1.253  0.00  0.00    +0.000 C 
BRANCH   6   8
ATOM      7  C   UNL     1       0.918  -0.024  -0.060  0.00  0.00    +0.000 C 
ATOM      8  C   UNL     1       2.438  -0.063  -0.031  0.00  0.00    +0.000 C 
ENDBRANCH   6   8
ENDBRANCH   1   6
TORSDOF 2
