REMARK  Name = ligand_837923
REMARK  2 active torsions:
REMARK  status: ('A' for Active; 'I' for Inactive)
REMARK    1  A    between atoms: C_1  and  C_2
REMARK    2  A    between atoms: C_3  and  C_4
REMARK                            x       y       z     vdW  Elec       q    Type
REMARK                         _______ _______ _______ _____ _____    ______ ____
ROOT
ATOM      1  C   UNL     1       4.638   1.094   0.197  0.00  0.00    +0.000 A 
ATOM      2  C   UNL     1       5.465   0.047  -0.162  0.00  0.00    +0.000 A 
ATOM      3  S   UNL     1       7.126   0.451  -0.055  0.00  0.00    +0.000 S 
ATOM      4  C   UNL     1       6.759   2.035   0.471  0.00  0.00    +0.000 A 
ATOM      5  C   UNL     1       5.400   2.248   0.562  0.00  0.00    +0.000 A 
ENDROOT
BRANCH   1   8
ATOM      6  C   UNL     1       0.941   0.036  -0.088  0.00  0.00    +0.000 C 
ATOM      7  C   UNL     1       2.433   0.005  -0.139  0.00  0.00    +0.000 C 
ATOM      8  C   UNL     1       3.205   1.048   0.213  0.00  0.00    +0.000 C 
ENDBRANCH   1   8
TORSDOF 1
