REMARK  Name = ligand_838276
REMARK  2 active torsions:
REMARK  status: ('A' for Active; 'I' for Inactive)
REMARK    1  A    between atoms: C_2  and  O_3
REMARK    2  A    between atoms: O_3  and  C_4
REMARK                            x       y       z     vdW  Elec       q    Type
REMARK                         _______ _______ _______ _____ _____    ______ ____
ROOT
ATOM      1  C   UNL     1       4.430   0.602  -0.876  0.00  0.00    +0.000 A 
ATOM      2  N   UNL     1       5.101   1.701  -1.223  0.00  0.00    +0.000 NA
ATOM      3  S   UNL     1       6.706   1.220  -1.258  0.00  0.00    +0.000 S 
ATOM      4  N   UNL     1       6.540  -0.405  -0.865  0.00  0.00    +0.000 NA
ATOM      5  C   UNL     1       5.225  -0.573  -0.702  0.00  0.00    +0.000 A 
ENDROOT
BRANCH   1   6
ATOM      6  O   UNL     1       3.090   0.755  -0.777  0.00  0.00    +0.000 OA
BRANCH   6   8
ATOM      7  C   UNL     1       1.009  -0.021   0.035  0.00  0.00    +0.000 C 
ATOM      8  C   UNL     1       2.343  -0.076   0.019  0.00  0.00    +0.000 C 
ENDBRANCH   6   8
ENDBRANCH   1   6
TORSDOF 2
