REMARK  Name = ligand_838608
REMARK  5 active torsions:
REMARK  status: ('A' for Active; 'I' for Inactive)
REMARK    1  A    between atoms: C_1  and  N_2
REMARK    2  A    between atoms: N_2  and  C_3
REMARK    3  A    between atoms: C_3  and  N_5
REMARK    4  A    between atoms: N_5  and  C_6
REMARK    5  A    between atoms: C_6  and  C_7
REMARK                            x       y       z     vdW  Elec       q    Type
REMARK                         _______ _______ _______ _____ _____    ______ ____
ROOT
ATOM      1  C   UNL     1       3.069   0.969  -1.205  0.00  0.00    +0.000 C 
ATOM      2  S   UNL     1       2.274   0.565   0.211  0.00  0.00    +0.000 S 
ENDROOT
BRANCH   1   4
ATOM      3  C   UNL     1       1.046   1.170  -2.664  0.00  0.00    +0.000 C 
ATOM      4  N   UNL     1       2.472   1.186  -2.409  0.00  0.00    +0.000 N 
ATOM      5  H   UNL     1       3.068   1.013  -3.208  0.00  0.00    +0.000 HD
ENDBRANCH   1   4
BRANCH   1   6
ATOM      6  N   UNL     1       4.436   1.046  -1.158  0.00  0.00    +0.000 N 
ATOM      7  H   UNL     1       4.792   0.652  -0.295  0.00  0.00    +0.000 HD
BRANCH   6   8
ATOM      8  C   UNL     1       5.378   1.652  -1.964  0.00  0.00    +0.000 C 
ATOM      9  C   UNL     1       5.023   2.640  -3.038  0.00  0.00    +0.000 C 
ATOM     10  C   UNL     1       6.675   1.425  -1.695  0.00  0.00    +0.000 C 
ENDBRANCH   6   8
ENDBRANCH   1   6
TORSDOF 3
