REMARK  Name = ligand_838999
REMARK  3 active torsions:
REMARK  status: ('A' for Active; 'I' for Inactive)
REMARK    1  A    between atoms: N_1  and  C_2
REMARK    2  A    between atoms: CA_3  and  C_4
REMARK    3  A    between atoms: C_4  and  O_5
REMARK                            x       y       z     vdW  Elec       q    Type
REMARK                         _______ _______ _______ _____ _____    ______ ____
ROOT
ATOM      1  C   UNL     1       2.214  -0.033   0.140  0.00  0.00    +0.000 A 
ATOM      2  CA  UNL     1       3.063   1.064   0.101  0.00  0.00    +0.000 A 
ATOM      3  N   UNL     1       4.426   0.764   0.070  0.00  0.00    +0.000 NA
ATOM      4  C   UNL     1       4.581  -0.540   0.094  0.00  0.00    +0.000 A 
ATOM      5  S   UNL     1       3.148  -1.473   0.140  0.00  0.00    +0.000 S 
ENDROOT
BRANCH   1   6
ATOM      6  N   UNL     1       0.865  -0.077   0.176  0.00  0.00    +0.000 N 
ATOM      7  H   UNL     1       0.304   0.732  -0.071  0.00  0.00    +0.000 HD
ATOM      8  H   UNL     1       0.400  -0.963  -0.001  0.00  0.00    +0.000 HD
ENDBRANCH   1   6
BRANCH   2   9
ATOM      9  C   UNL     1       2.677   2.508   0.101  0.00  0.00    +0.000 C 
BRANCH   9  10
ATOM     10  O   UNL     1       3.662   3.316  -0.544  0.00  0.00    +0.000 OA
ATOM     11  H   UNL     1       4.492   2.806  -0.457  0.00  0.00    +0.000 HD
ENDBRANCH   9  10
ENDBRANCH   2   9
TORSDOF 3
