REMARK  Name = ligand_838990
REMARK  2 active torsions:
REMARK  status: ('A' for Active; 'I' for Inactive)
REMARK    1  A    between atoms: N_1  and  C_2
REMARK    2  A    between atoms: C_3  and  C_4
REMARK                            x       y       z     vdW  Elec       q    Type
REMARK                         _______ _______ _______ _____ _____    ______ ____
ROOT
ATOM      1  C   UNL     1       0.813   0.307   0.002  0.00  0.00    +0.000 A 
ATOM      2  C   UNL     1       0.076   1.479   0.009  0.00  0.00    +0.000 A 
ATOM      3  C   UNL     1      -1.335   1.207  -0.002  0.00  0.00    +0.000 A 
ATOM      4  C   UNL     1      -1.612  -0.141  -0.010  0.00  0.00    +0.000 A 
ATOM      5  S   UNL     1      -0.188  -1.081  -0.008  0.00  0.00    +0.000 S 
ENDROOT
BRANCH   1   6
ATOM      6  N   UNL     1       2.153   0.184   0.003  0.00  0.00    +0.000 N 
ATOM      7  H   UNL     1       2.754   1.009  -0.005  0.00  0.00    +0.000 HD
ATOM      8  H   UNL     1       2.617  -0.716  -0.020  0.00  0.00    +0.000 HD
ENDBRANCH   1   6
BRANCH   2   9
ATOM      9  C   UNL     1       0.664   2.813   0.025  0.00  0.00    +0.000 C 
ATOM     10  O   UNL     1       1.869   3.049   0.032  0.00  0.00    +0.000 OA
ENDBRANCH   2   9
TORSDOF 2
