REMARK  Name = ligand_83978
REMARK  3 active torsions:
REMARK  status: ('A' for Active; 'I' for Inactive)
REMARK    1  A    between atoms: C_1  and  C_2
REMARK    2  A    between atoms: N_4  and  N_5
REMARK    3  A    between atoms: C_7  and  C_8
REMARK                            x       y       z     vdW  Elec       q    Type
REMARK                         _______ _______ _______ _____ _____    ______ ____
ROOT
ATOM      1  C   UNL     1       1.038   0.067   0.095  0.00  0.00    +0.000 C 
ATOM      2  C   UNL     1       2.523   0.017   0.061  0.00  0.00    +0.000 A 
ATOM      3  C   UNL     1       3.383   1.100   0.003  0.00  0.00    +0.000 A 
ATOM      4  N   UNL     1       4.658   0.630  -0.039  0.00  0.00    +0.000 N 
ATOM      5  C   UNL     1       4.656  -0.730   0.006  0.00  0.00    +0.000 A 
ATOM      6  C   UNL     1       3.342  -1.160   0.062  0.00  0.00    +0.000 A 
ATOM      7  C   UNL     1       2.873  -2.570   0.097  0.00  0.00    +0.000 C 
ENDROOT
BRANCH   4   8
ATOM      8  N   UNL     1       5.809   1.430  -0.120  0.00  0.00    +0.000 N 
ATOM      9  H   UNL     1       5.675   2.317   0.360  0.00  0.00    +0.000 HD
ATOM     10  H   UNL     1       6.600   0.986   0.340  0.00  0.00    +0.000 HD
ENDBRANCH   4   8
TORSDOF 1
