REMARK  Name = ligand_84051
REMARK  3 active torsions:
REMARK  status: ('A' for Active; 'I' for Inactive)
REMARK    1  A    between atoms: C_1  and  C_2
REMARK    2  A    between atoms: C_4  and  C_5
REMARK    3  A    between atoms: C_5  and  C_6
REMARK                            x       y       z     vdW  Elec       q    Type
REMARK                         _______ _______ _______ _____ _____    ______ ____
ROOT
ATOM      1  C   UNL     1       1.093   0.386  -0.282  0.00  0.00    +0.000 C 
ATOM      2  C   UNL     1       2.550   0.132  -0.110  0.00  0.00    +0.000 C 
ATOM      3  N   UNL     1       3.468   0.643  -1.122  0.00  0.00    +0.000 NA
ATOM      4  C   UNL     1       3.340  -0.812  -0.995  0.00  0.00    +0.000 C 
ATOM      5  H   UNL     1       4.340   0.965  -0.697  0.00  0.00    +0.000 HD
ENDROOT
BRANCH   4   6
ATOM      6  C   UNL     1       2.749  -1.582  -2.141  0.00  0.00    +0.000 C 
BRANCH   6   7
ATOM      7  C   UNL     1       2.588  -3.042  -1.816  0.00  0.00    +0.000 C 
ATOM      8  C   UNL     1       3.796  -3.933  -1.648  0.00  0.00    +0.000 C 
ATOM      9  C   UNL     1       2.913  -4.085  -2.856  0.00  0.00    +0.000 C 
ENDBRANCH   6   7
ENDBRANCH   4   6
TORSDOF 2
