REMARK  Name = ligand_84364
REMARK  3 active torsions:
REMARK  status: ('A' for Active; 'I' for Inactive)
REMARK    1  A    between atoms: C_1  and  C_2
REMARK    2  A    between atoms: C_2  and  N_3
REMARK    3  A    between atoms: C_6  and  C_7
REMARK                            x       y       z     vdW  Elec       q    Type
REMARK                         _______ _______ _______ _____ _____    ______ ____
ROOT
ATOM      1  C   UNL     1       0.741  -0.088   0.028  0.00  0.00    +0.000 C 
ATOM      2  C   UNL     1       2.251  -0.001   0.032  0.00  0.00    +0.000 C 
ATOM      3  C   UNL     1       3.044  -1.054   0.847  0.00  0.00    +0.000 C 
ATOM      4  N   UNL     1       3.973   0.002   1.305  0.00  0.00    +0.000 NA
ATOM      5  C   UNL     1       3.006   1.056   0.907  0.00  0.00    +0.000 C 
ATOM      6  H   UNL     1       4.831   0.047   0.758  0.00  0.00    +0.000 HD
ENDROOT
BRANCH   2   7
ATOM      7  N   UNL     1       2.795   0.044  -1.350  0.00  0.00    +0.000 NA
ATOM      8  H   UNL     1       2.445  -0.704  -1.948  0.00  0.00    +0.000 HD
ATOM      9  H   UNL     1       3.811  -0.015  -1.396  0.00  0.00    +0.000 HD
ENDBRANCH   2   7
BRANCH   5  10
ATOM     10  C   UNL     1       2.298   1.564   2.113  0.00  0.00    +0.000 C 
ATOM     11  C   UNL     1       1.827   2.818   2.150  0.00  0.00    +0.000 C 
ENDBRANCH   5  10
TORSDOF 2
