REMARK  Name = ligand_84620
REMARK  2 active torsions:
REMARK  status: ('A' for Active; 'I' for Inactive)
REMARK    1  A    between atoms: C_1  and  C_2
REMARK    2  A    between atoms: C_2  and  C_3
REMARK                            x       y       z     vdW  Elec       q    Type
REMARK                         _______ _______ _______ _____ _____    ______ ____
ROOT
ATOM      1  C   UNL     1       3.095   0.920   1.190  0.00  0.00    +0.000 C 
ATOM      2  C   UNL     1       4.520   0.685   1.801  0.00  0.00    +0.000 C 
ATOM      3  C   UNL     1       4.656   1.704   2.931  0.00  0.00    +0.000 C 
ATOM      4  C   UNL     1       4.120   2.931   2.193  0.00  0.00    +0.000 C 
ATOM      5  C   UNL     1       3.818   2.271   0.851  0.00  0.00    +0.000 C 
ATOM      6  N   UNL     1       5.024   1.391   0.552  0.00  0.00    +0.000 NA
ATOM      7  H   UNL     1       5.926   1.854   0.661  0.00  0.00    +0.000 HD
ENDROOT
BRANCH   1   9
ATOM      8  C   UNL     1       1.224   0.442  -0.401  0.00  0.00    +0.000 C 
ATOM      9  C   UNL     1       2.610   0.013   0.058  0.00  0.00    +0.000 C 
ENDBRANCH   1   9
TORSDOF 1
