REMARK  Name = ligand_84689
REMARK  2 active torsions:
REMARK  status: ('A' for Active; 'I' for Inactive)
REMARK    1  A    between atoms: C_2  and  C_3
REMARK    2  A    between atoms: C_5  and  N_6
REMARK                            x       y       z     vdW  Elec       q    Type
REMARK                         _______ _______ _______ _____ _____    ______ ____
ROOT
ATOM      1  C   UNL     1       3.128   0.682  -1.185  0.00  0.00    +0.000 C 
ATOM      2  C   UNL     1       2.960   2.144  -1.499  0.00  0.00    +0.000 C 
ATOM      3  C   UNL     1       2.483   1.113  -2.480  0.00  0.00    +0.000 C 
ENDROOT
BRANCH   3   4
ATOM      4  N   UNL     1       1.060   0.958  -2.752  0.00  0.00    +0.000 N 
ATOM      5  C   UNL     1       0.538  -0.207  -3.224  0.00  0.00    +0.000 C 
ATOM      6  N   UNL     1       1.133  -1.329  -3.429  0.00  0.00    +0.000 NA
ATOM      7  H   UNL     1       0.423   1.729  -2.581  0.00  0.00    +0.000 HD
ATOM      8  H   UNL     1       2.116  -1.237  -3.163  0.00  0.00    +0.000 HD
ENDBRANCH   3   4
BRANCH   1  10
ATOM      9  C   UNL     1       2.417   0.391   1.191  0.00  0.00    +0.000 C 
ATOM     10  C   UNL     1       2.321   0.093  -0.111  0.00  0.00    +0.000 C 
ENDBRANCH   1  10
TORSDOF 2
