REMARK  Name = ligand_85112
REMARK  2 active torsions:
REMARK  status: ('A' for Active; 'I' for Inactive)
REMARK    1  A    between atoms: C_1  and  C_2
REMARK    2  A    between atoms: C_2  and  C_3
REMARK                            x       y       z     vdW  Elec       q    Type
REMARK                         _______ _______ _______ _____ _____    ______ ____
ROOT
ATOM      1  C   UNL     1       2.874  -1.027  -0.938  0.00  0.00    +0.000 C 
ATOM      2  C   UNL     1       2.909  -2.448  -0.348  0.00  0.00    +0.000 C 
ATOM      3  N   UNL     1       2.829  -3.279  -1.534  0.00  0.00    +0.000 N 
ATOM      4  C   UNL     1       2.191  -2.619  -2.539  0.00  0.00    +0.000 C 
ATOM      5  N   UNL     1       1.750  -3.133  -3.628  0.00  0.00    +0.000 NA
ATOM      6  C   UNL     1       1.990  -1.166  -2.192  0.00  0.00    +0.000 C 
ATOM      7  H   UNL     1       2.647  -4.267  -1.414  0.00  0.00    +0.000 HD
ATOM      8  H   UNL     1       2.003  -4.122  -3.654  0.00  0.00    +0.000 HD
ENDROOT
BRANCH   1  10
ATOM      9  C   UNL     1       3.240   0.191   1.260  0.00  0.00    +0.000 C 
ATOM     10  C   UNL     1       2.361   0.041   0.027  0.00  0.00    +0.000 C 
ENDBRANCH   1  10
TORSDOF 1
