REMARK  Name = ligand_85168
REMARK  2 active torsions:
REMARK  status: ('A' for Active; 'I' for Inactive)
REMARK    1  A    between atoms: C_1  and  C_2
REMARK    2  A    between atoms: C_2  and  C_3
REMARK                            x       y       z     vdW  Elec       q    Type
REMARK                         _______ _______ _______ _____ _____    ______ ____
ROOT
ATOM      1  C   UNL     1       3.030  -0.139  -1.481  0.00  0.00    +0.000 A 
ATOM      2  C   UNL     1       3.232  -1.320  -2.146  0.00  0.00    +0.000 A 
ATOM      3  N   UNL     1       3.694  -1.387  -3.409  0.00  0.00    +0.000 NA
ATOM      4  N   UNL     1       3.972  -0.276  -4.042  0.00  0.00    +0.000 NA
ATOM      5  N   UNL     1       3.822   0.898  -3.484  0.00  0.00    +0.000 NA
ATOM      6  C   UNL     1       3.359   0.965  -2.221  0.00  0.00    +0.000 A 
ENDROOT
BRANCH   1   8
ATOM      7  C   UNL     1       3.656  -0.126   0.942  0.00  0.00    +0.000 C 
ATOM      8  C   UNL     1       2.528  -0.066  -0.077  0.00  0.00    +0.000 C 
ENDBRANCH   1   8
TORSDOF 1
