REMARK  Name = ligand_85560
REMARK  3 active torsions:
REMARK  status: ('A' for Active; 'I' for Inactive)
REMARK    1  A    between atoms: C_1  and  C_2
REMARK    2  A    between atoms: C_2  and  C_3
REMARK    3  A    between atoms: C_2  and  C_4
REMARK                            x       y       z     vdW  Elec       q    Type
REMARK                         _______ _______ _______ _____ _____    ______ ____
ROOT
ATOM      1  C   UNL     1       2.953  -0.124   1.483  0.00  0.00    +0.000 C 
ATOM      2  C   UNL     1       2.556  -1.431   2.163  0.00  0.00    +0.000 C 
ATOM      3  N   UNL     1       1.465  -1.001   3.027  0.00  0.00    +0.000 N 
ATOM      4  N   UNL     1       1.552   0.312   3.344  0.00  0.00    +0.000 NA
ATOM      5  C   UNL     1       2.352   0.833   2.473  0.00  0.00    +0.000 C 
ATOM      6  H   UNL     1       1.326  -1.600   3.842  0.00  0.00    +0.000 HD
ENDROOT
BRANCH   1   8
ATOM      7  C   UNL     1       0.871   0.043  -0.041  0.00  0.00    +0.000 C 
ATOM      8  C   UNL     1       2.400   0.059   0.056  0.00  0.00    +0.000 C 
ATOM      9  C   UNL     1       2.948   1.338  -0.585  0.00  0.00    +0.000 C 
ENDBRANCH   1   8
TORSDOF 1
