REMARK  Name = ligand_85991
REMARK  6 active torsions:
REMARK  status: ('A' for Active; 'I' for Inactive)
REMARK    1  A    between atoms: C_1  and  C_2
REMARK    2  A    between atoms: C_2  and  C_3
REMARK    3  A    between atoms: C_2  and  C_4
REMARK    4  A    between atoms: C_5  and  C_6
REMARK    5  A    between atoms: C_6  and  C_7
REMARK    6  A    between atoms: C_7  and  N_8
REMARK                            x       y       z     vdW  Elec       q    Type
REMARK                         _______ _______ _______ _____ _____    ______ ____
ROOT
ATOM      1  C   UNL     1       3.078   0.798  -1.181  0.00  0.00    +0.000 C 
ATOM      2  C   UNL     1       4.383   0.980  -1.424  0.00  0.00    +0.000 C 
ENDROOT
BRANCH   1   4
ATOM      3  C   UNL     1       1.653   0.977   0.867  0.00  0.00    +0.000 C 
ATOM      4  C   UNL     1       2.546   0.063   0.028  0.00  0.00    +0.000 C 
ATOM      5  C   UNL     1       1.771  -1.191  -0.382  0.00  0.00    +0.000 C 
ENDBRANCH   1   4
BRANCH   2   6
ATOM      6  C   UNL     1       4.909   1.689  -2.644  0.00  0.00    +0.000 C 
BRANCH   6   7
ATOM      7  C   UNL     1       5.816   0.779  -3.481  0.00  0.00    +0.000 C 
BRANCH   7   8
ATOM      8  N   UNL     1       6.318   1.476  -4.664  0.00  0.00    +0.000 NA
ATOM      9  H   UNL     1       5.535   1.748  -5.257  0.00  0.00    +0.000 HD
ATOM     10  H   UNL     1       6.882   0.831  -5.217  0.00  0.00    +0.000 HD
ENDBRANCH   7   8
ENDBRANCH   6   7
ENDBRANCH   2   6
TORSDOF 4
