REMARK  Name = ligand_86641
REMARK  5 active torsions:
REMARK  status: ('A' for Active; 'I' for Inactive)
REMARK    1  A    between atoms: C_1  and  C_2
REMARK    2  A    between atoms: C_2  and  C_3
REMARK    3  A    between atoms: C_3  and  C_4
REMARK    4  A    between atoms: C_4  and  C_5
REMARK    5  A    between atoms: N_6  and  N_7
REMARK                            x       y       z     vdW  Elec       q    Type
REMARK                         _______ _______ _______ _____ _____    ______ ____
ROOT
ATOM      1  C   UNL     1       4.683  -1.017  -0.965  0.00  0.00    +0.000 C 
ENDROOT
BRANCH   1   2
ATOM      2  C   UNL     1       5.267  -1.371   0.375  0.00  0.00    +0.000 C 
ATOM      3  N   UNL     1       6.031  -0.533   0.995  0.00  0.00    +0.000 NA
BRANCH   3   4
ATOM      4  N   UNL     1       6.447  -1.051   2.215  0.00  0.00    +0.000 NA
ATOM      5  C   UNL     1       7.208  -0.206   2.827  0.00  0.00    +0.000 C 
ENDBRANCH   3   4
ENDBRANCH   1   2
BRANCH   1   6
ATOM      6  C   UNL     1       3.156  -1.017  -0.925  0.00  0.00    +0.000 C 
BRANCH   6   8
ATOM      7  C   UNL     1       1.073   0.028   0.044  0.00  0.00    +0.000 C 
ATOM      8  C   UNL     1       2.593   0.026   0.043  0.00  0.00    +0.000 C 
ENDBRANCH   6   8
ENDBRANCH   1   6
TORSDOF 4
