REMARK  Name = ligand_873
REMARK  1 active torsions:
REMARK  status: ('A' for Active; 'I' for Inactive)
REMARK    1  A    between atoms: C_1  and  C_2
REMARK                            x       y       z     vdW  Elec       q    Type
REMARK                         _______ _______ _______ _____ _____    ______ ____
ROOT
ATOM      1  C   UNL     1       1.971  -0.376   0.942  0.00  0.00    +0.000 C 
ATOM      2  C   UNL     1       2.940   0.659   0.396  0.00  0.00    +0.000 C 
ATOM      3  C   UNL     1       2.723   1.079  -1.103  0.00  0.00    +0.000 C 
ATOM      4  C   UNL     1       4.071   1.845  -0.893  0.00  0.00    +0.000 C 
ATOM      5  C   UNL     1       4.430   0.490  -0.175  0.00  0.00    +0.000 C 
ATOM      6  C   UNL     1       4.491  -0.426  -1.399  0.00  0.00    +0.000 C 
ATOM      7  C   UNL     1       4.836  -1.866  -1.070  0.00  0.00    +0.000 C 
ATOM      8  C   UNL     1       3.093  -0.153  -1.954  0.00  0.00    +0.000 C 
ENDROOT
TORSDOF 0
