REMARK  Name = ligand_87308
REMARK  6 active torsions:
REMARK  status: ('A' for Active; 'I' for Inactive)
REMARK    1  A    between atoms: C_1  and  C_2
REMARK    2  A    between atoms: C_2  and  C_3
REMARK    3  A    between atoms: C_3  and  N_4
REMARK    4  A    between atoms: C_3  and  C_6
REMARK    5  A    between atoms: N_4  and  C_5
REMARK    6  A    between atoms: C_7  and  C_8
REMARK                            x       y       z     vdW  Elec       q    Type
REMARK                         _______ _______ _______ _____ _____    ______ ____
ROOT
ATOM      1  C   UNL     1       2.981   0.967   1.159  0.00  0.00    +0.000 C 
ENDROOT
BRANCH   1   2
ATOM      2  N   UNL     1       2.511   0.527   2.482  0.00  0.00    +0.000 NA
ATOM      3  C   UNL     1       2.928   1.432   3.562  0.00  0.00    +0.000 C 
ATOM      4  H   UNL     1       2.902  -0.391   2.666  0.00  0.00    +0.000 HD
ENDBRANCH   1   2
BRANCH   1   5
ATOM      5  C   UNL     1       4.501   0.967   1.159  0.00  0.00    +0.000 C 
ATOM      6  C   UNL     1       5.805   0.967   1.159  0.00  0.00    +0.000 C 
ATOM      7  C   UNL     1       7.325   0.967   1.159  0.00  0.00    +0.000 C 
ENDBRANCH   1   5
BRANCH   1   9
ATOM      8  C   UNL     1       0.986  -0.121  -0.067  0.00  0.00    +0.000 C 
ATOM      9  C   UNL     1       2.501   0.013   0.048  0.00  0.00    +0.000 C 
ENDBRANCH   1   9
TORSDOF 3
