REMARK  Name = ligand_87456
REMARK  6 active torsions:
REMARK  status: ('A' for Active; 'I' for Inactive)
REMARK    1  A    between atoms: C_1  and  C_2
REMARK    2  A    between atoms: C_2  and  C_3
REMARK    3  A    between atoms: C_3  and  N_4
REMARK    4  A    between atoms: C_3  and  C_5
REMARK    5  A    between atoms: C_3  and  C_7
REMARK    6  A    between atoms: C_5  and  N_6
REMARK                            x       y       z     vdW  Elec       q    Type
REMARK                         _______ _______ _______ _____ _____    ______ ____
ROOT
ATOM      1  C   UNL     1       3.075   0.091   1.367  0.00  0.00    +0.000 C 
ENDROOT
BRANCH   1   2
ATOM      2  N   UNL     1       2.646   1.374   1.952  0.00  0.00    +0.000 NA
ATOM      3  H   UNL     1       1.627   1.411   1.913  0.00  0.00    +0.000 HD
ATOM      4  H   UNL     1       2.977   2.131   1.364  0.00  0.00    +0.000 HD
ENDBRANCH   1   2
BRANCH   1   6
ATOM      5  C   UNL     1       3.009   1.026  -1.084  0.00  0.00    +0.000 C 
ATOM      6  C   UNL     1       2.551  -0.050  -0.087  0.00  0.00    +0.000 C 
ENDBRANCH   1   6
BRANCH   1   7
ATOM      7  C   UNL     1       4.595   0.091   1.367  0.00  0.00    +0.000 C 
ATOM      8  C   UNL     1       5.899   0.091   1.367  0.00  0.00    +0.000 C 
ENDBRANCH   1   7
BRANCH   1   9
ATOM      9  C   UNL     1       2.577  -1.080   2.282  0.00  0.00    +0.000 C 
BRANCH   9  10
ATOM     10  N   UNL     1       1.112  -1.194   2.404  0.00  0.00    +0.000 NA
ATOM     11  H   UNL     1       0.760  -0.338   2.834  0.00  0.00    +0.000 HD
ATOM     12  H   UNL     1       0.902  -1.936   3.073  0.00  0.00    +0.000 HD
ENDBRANCH   9  10
ENDBRANCH   1   9
TORSDOF 5
