REMARK  Name = ligand_88311
REMARK  3 active torsions:
REMARK  status: ('A' for Active; 'I' for Inactive)
REMARK    1  A    between atoms: C_1  and  C_2
REMARK    2  A    between atoms: C_2  and  N_3
REMARK    3  A    between atoms: C_6  and  C_7
REMARK                            x       y       z     vdW  Elec       q    Type
REMARK                         _______ _______ _______ _____ _____    ______ ____
ROOT
ATOM      1  N   UNL     1       3.000  -0.253  -1.378  0.00  0.00    +0.000 N 
ATOM      2  C   UNL     1       2.074  -0.445  -2.392  0.00  0.00    +0.000 C 
ATOM      3  N   UNL     1       0.784  -0.435  -2.389  0.00  0.00    +0.000 NA
ATOM      4  C   UNL     1       4.390  -0.212  -1.550  0.00  0.00    +0.000 C 
ATOM      5  C   UNL     1       4.977   0.252  -2.869  0.00  0.00    +0.000 C 
ATOM      6  N   UNL     1       5.272  -0.535  -0.656  0.00  0.00    +0.000 NA
ATOM      7  H   UNL     1       0.399  -0.251  -1.465  0.00  0.00    +0.000 HD
ATOM      8  H   UNL     1       4.834  -0.885   0.195  0.00  0.00    +0.000 HD
ENDROOT
BRANCH   1  10
ATOM      9  C   UNL     1       2.213  -1.255   0.752  0.00  0.00    +0.000 C 
ATOM     10  C   UNL     1       2.492   0.024  -0.021  0.00  0.00    +0.000 C 
ENDBRANCH   1  10
TORSDOF 1
