REMARK  Name = ligand_88405
REMARK  2 active torsions:
REMARK  status: ('A' for Active; 'I' for Inactive)
REMARK    1  A    between atoms: C_1  and  C_2
REMARK    2  A    between atoms: N_4  and  C_5
REMARK                            x       y       z     vdW  Elec       q    Type
REMARK                         _______ _______ _______ _____ _____    ______ ____
ROOT
ATOM      1  C   UNL     1       0.953   1.550   0.264  0.00  0.00    +0.000 C 
ATOM      2  C   UNL     1       2.443   1.815   0.225  0.00  0.00    +0.000 C 
ATOM      3  N   UNL     1       2.943   2.786   0.914  0.00  0.00    +0.000 NA
ATOM      4  N   UNL     1       3.189   0.985  -0.571  0.00  0.00    +0.000 N 
ATOM      5  H   UNL     1       2.215   3.286   1.433  0.00  0.00    +0.000 HD
ATOM      6  H   UNL     1       2.823   0.066  -0.787  0.00  0.00    +0.000 HD
ENDROOT
BRANCH   4   7
ATOM      7  C   UNL     1       4.608   1.162  -0.617  0.00  0.00    +0.000 C 
ATOM      8  C   UNL     1       5.309   0.115  -1.509  0.00  0.00    +0.000 C 
ATOM      9  N   UNL     1       6.362  -0.025  -0.476  0.00  0.00    +0.000 NA
ATOM     10  C   UNL     1       5.400   0.502   0.529  0.00  0.00    +0.000 C 
ATOM     11  H   UNL     1       7.152   0.603  -0.629  0.00  0.00    +0.000 HD
ENDBRANCH   4   7
TORSDOF 1
