REMARK  Name = ligand_88647
REMARK  2 active torsions:
REMARK  status: ('A' for Active; 'I' for Inactive)
REMARK    1  A    between atoms: C_1  and  N_2
REMARK    2  A    between atoms: C_6  and  N_7
REMARK                            x       y       z     vdW  Elec       q    Type
REMARK                         _______ _______ _______ _____ _____    ______ ____
ROOT
ATOM      1  C   UNL     1       1.034   0.077   0.439  0.00  0.00    +0.000 C 
ATOM      2  N   UNL     1       2.459   0.032   0.091  0.00  0.00    +0.000 NA
ATOM      3  C   UNL     1       2.712   0.867  -1.107  0.00  0.00    +0.000 C 
ATOM      4  C   UNL     1       2.426  -0.038  -2.267  0.00  0.00    +0.000 C 
ATOM      5  C   UNL     1       3.458  -0.976  -2.825  0.00  0.00    +0.000 C 
ATOM      6  C   UNL     1       2.482  -1.446  -1.773  0.00  0.00    +0.000 C 
ATOM      7  C   UNL     1       2.848  -1.345  -0.299  0.00  0.00    +0.000 C 
ENDROOT
BRANCH   6   8
ATOM      8  N   UNL     1       1.404  -2.363  -2.177  0.00  0.00    +0.000 NA
ATOM      9  H   UNL     1       1.747  -3.037  -2.860  0.00  0.00    +0.000 HD
ATOM     10  H   UNL     1       1.072  -2.913  -1.385  0.00  0.00    +0.000 HD
ENDBRANCH   6   8
TORSDOF 1
