REMARK  Name = ligand_88711
REMARK  1 active torsions:
REMARK  status: ('A' for Active; 'I' for Inactive)
REMARK    1  A    between atoms: C_1  and  N_2
REMARK                            x       y       z     vdW  Elec       q    Type
REMARK                         _______ _______ _______ _____ _____    ______ ____
ROOT
ATOM      1  C   UNL     1       0.924   0.006  -0.074  0.00  0.00    +0.000 C 
ATOM      2  N   UNL     1       2.383   0.085  -0.017  0.00  0.00    +0.000 NA
ATOM      3  C   UNL     1       2.943  -1.164   0.546  0.00  0.00    +0.000 C 
ATOM      4  C   UNL     1       3.262  -0.853   2.006  0.00  0.00    +0.000 C 
ATOM      5  C   UNL     1       3.729   0.593   1.968  0.00  0.00    +0.000 C 
ATOM      6  C   UNL     1       2.898   1.177   0.855  0.00  0.00    +0.000 C 
ATOM      7  C   UNL     1       2.181   2.488   1.071  0.00  0.00    +0.000 C 
ATOM      8  C   UNL     1       3.386   2.440   0.185  0.00  0.00    +0.000 C 
ENDROOT
TORSDOF 0
