REMARK  Name = ligand_89000
REMARK  2 active torsions:
REMARK  status: ('A' for Active; 'I' for Inactive)
REMARK    1  A    between atoms: C_1  and  N_2
REMARK    2  A    between atoms: N_2  and  C_3
REMARK                            x       y       z     vdW  Elec       q    Type
REMARK                         _______ _______ _______ _____ _____    ______ ____
ROOT
ATOM      1  C   UNL     1       2.491   0.647   1.179  0.00  0.00    +0.000 C 
ATOM      2  C   UNL     1       1.610   0.188   2.393  0.00  0.00    +0.000 C 
ATOM      3  C   UNL     1       2.694   1.131   3.086  0.00  0.00    +0.000 C 
ATOM      4  C   UNL     1       3.681   0.295   2.148  0.00  0.00    +0.000 C 
ATOM      5  C   UNL     1       2.555   2.461   2.398  0.00  0.00    +0.000 C 
ATOM      6  C   UNL     1       2.434   2.119   1.106  0.00  0.00    +0.000 C 
ENDROOT
BRANCH   1   8
ATOM      7  C   UNL     1       1.096  -0.222  -0.545  0.00  0.00    +0.000 C 
ATOM      8  N   UNL     1       2.446  -0.187   0.008  0.00  0.00    +0.000 NA
ATOM      9  H   UNL     1       3.095   0.119  -0.716  0.00  0.00    +0.000 HD
ENDBRANCH   1   8
TORSDOF 1
