REMARK  Name = ligand_8916
REMARK  3 active torsions:
REMARK  status: ('A' for Active; 'I' for Inactive)
REMARK    1  A    between atoms: C_1  and  C_2
REMARK    2  A    between atoms: C_3  and  C_4
REMARK    3  A    between atoms: C_5  and  C_6
REMARK                            x       y       z     vdW  Elec       q    Type
REMARK                         _______ _______ _______ _____ _____    ______ ____
ROOT
ATOM      1  C   UNL     1       4.678   0.896  -0.898  0.00  0.00    +0.000 C 
ATOM      2  C   UNL     1       5.982   0.896  -0.898  0.00  0.00    +0.000 C 
ENDROOT
BRANCH   1   5
ATOM      3  C   UNL     1       0.975   0.054  -0.063  0.00  0.00    +0.000 C 
ATOM      4  C   UNL     1       2.467   0.083  -0.090  0.00  0.00    +0.000 C 
ATOM      5  C   UNL     1       3.158   0.896  -0.898  0.00  0.00    +0.000 C 
ENDBRANCH   1   5
BRANCH   2   6
ATOM      6  C   UNL     1       7.415   0.908  -0.963  0.00  0.00    +0.000 C 
ATOM      7  C   UNL     1       8.200  -0.024  -0.077  0.00  0.00    +0.000 C 
ATOM      8  C   UNL     1       8.200   1.451   0.202  0.00  0.00    +0.000 C 
ENDBRANCH   2   6
TORSDOF 2
