REMARK  Name = ligand_89387
REMARK  5 active torsions:
REMARK  status: ('A' for Active; 'I' for Inactive)
REMARK    1  A    between atoms: C_1  and  N_2
REMARK    2  A    between atoms: N_2  and  C_3
REMARK    3  A    between atoms: N_2  and  C_4
REMARK    4  A    between atoms: C_4  and  C_5
REMARK    5  A    between atoms: C_5  and  N_6
REMARK                            x       y       z     vdW  Elec       q    Type
REMARK                         _______ _______ _______ _____ _____    ______ ____
ROOT
ATOM      1  C   UNL     1       3.003  -0.614  -0.984  0.00  0.00    +0.000 C 
ATOM      2  C   UNL     1       2.139  -1.325  -2.008  0.00  0.00    +0.000 C 
ATOM      3  C   UNL     1       3.132  -2.113  -1.205  0.00  0.00    +0.000 C 
ENDROOT
BRANCH   1   5
ATOM      4  C   UNL     1       1.687   1.198   0.085  0.00  0.00    +0.000 C 
ATOM      5  N   UNL     1       2.378  -0.080   0.288  0.00  0.00    +0.000 NA
ATOM      6  C   UNL     1       1.499  -0.994   1.017  0.00  0.00    +0.000 C 
ENDBRANCH   1   5
BRANCH   1   7
ATOM      7  C   UNL     1       4.158   0.230  -1.552  0.00  0.00    +0.000 C 
BRANCH   7   8
ATOM      8  N   UNL     1       5.195   0.393  -0.538  0.00  0.00    +0.000 NA
ATOM      9  H   UNL     1       4.729   0.700   0.316  0.00  0.00    +0.000 HD
ATOM     10  H   UNL     1       5.823   1.139  -0.820  0.00  0.00    +0.000 HD
ENDBRANCH   7   8
ENDBRANCH   1   7
TORSDOF 3
