REMARK  Name = ligand_9100074
REMARK  7 active torsions:
REMARK  status: ('A' for Active; 'I' for Inactive)
REMARK    1  A    between atoms: C_1  and  C_2
REMARK    2  A    between atoms: C_2  and  C_3
REMARK    3  A    between atoms: C_3  and  O_4
REMARK    4  A    between atoms: O_4  and  C_5
REMARK    5  A    between atoms: C_6  and  C_7
REMARK    6  A    between atoms: C_7  and  O_8
REMARK    7  A    between atoms: O_8  and  C_9
REMARK                            x       y       z     vdW  Elec       q    Type
REMARK                         _______ _______ _______ _____ _____    ______ ____
ROOT
ATOM      1  C   UNL     1       5.239  -1.699   1.931  0.00  0.00    +0.000 C 
ATOM      2  C   UNL     1       6.574  -1.767   1.999  0.00  0.00    +0.000 C 
ENDROOT
BRANCH   1   3
ATOM      3  O   UNL     1       4.608  -0.933   0.989  0.00  0.00    +0.000 OA
BRANCH   3   4
ATOM      4  C   UNL     1       3.318  -0.473   1.408  0.00  0.00    +0.000 C 
BRANCH   4   6
ATOM      5  C   UNL     1       1.371   0.935   0.614  0.00  0.00    +0.000 C 
ATOM      6  C   UNL     1       2.737   0.368   0.275  0.00  0.00    +0.000 C 
ENDBRANCH   4   6
ENDBRANCH   3   4
ENDBRANCH   1   3
BRANCH   2   7
ATOM      7  C   UNL     1       7.325  -2.653   2.937  0.00  0.00    +0.000 C 
BRANCH   7   8
ATOM      8  O   UNL     1       8.165  -1.845   3.755  0.00  0.00    +0.000 OA
ATOM      9  C   UNL     1       8.899  -2.641   4.678  0.00  0.00    +0.000 C 
ENDBRANCH   7   8
ENDBRANCH   2   7
TORSDOF 5
