REMARK  Name = ligand_9100422
REMARK  7 active torsions:
REMARK  status: ('A' for Active; 'I' for Inactive)
REMARK    1  A    between atoms: C_1  and  C_2
REMARK    2  A    between atoms: C_2  and  C_3
REMARK    3  A    between atoms: C_2  and  C_8
REMARK    4  A    between atoms: C_3  and  O_4
REMARK    5  A    between atoms: O_4  and  C_5
REMARK    6  A    between atoms: C_5  and  C_6
REMARK    7  A    between atoms: C_6  and  O_7
REMARK                            x       y       z     vdW  Elec       q    Type
REMARK                         _______ _______ _______ _____ _____    ______ ____
ROOT
ATOM      1  C   UNL     1       3.126  -0.389   1.330  0.00  0.00    +0.000 C 
ENDROOT
BRANCH   1   3
ATOM      2  C   UNL     1       3.038  -0.825  -1.146  0.00  0.00    +0.000 C 
ATOM      3  C   UNL     1       2.574   0.085  -0.012  0.00  0.00    +0.000 C 
BRANCH   3   4
ATOM      4  C   UNL     1       3.020   1.515  -0.240  0.00  0.00    +0.000 C 
ATOM      5  O   UNL     1       3.668   1.895  -1.212  0.00  0.00    +0.000 OA
ENDBRANCH   3   4
ENDBRANCH   1   3
BRANCH   1   6
ATOM      6  O   UNL     1       2.611   0.441   2.379  0.00  0.00    +0.000 OA
BRANCH   6   7
ATOM      7  C   UNL     1       3.115   0.030   3.660  0.00  0.00    +0.000 C 
BRANCH   7   8
ATOM      8  C   UNL     1       2.602   0.994   4.725  0.00  0.00    +0.000 C 
BRANCH   8   9
ATOM      9  O   UNL     1       1.178   0.987   4.754  0.00  0.00    +0.000 OA
ATOM     10  H   UNL     1       0.897   1.182   3.840  0.00  0.00    +0.000 HD
ENDBRANCH   8   9
ENDBRANCH   7   8
ENDBRANCH   6   7
ENDBRANCH   1   6
TORSDOF 6
