REMARK  Name = ligand_910049
REMARK  2 active torsions:
REMARK  status: ('A' for Active; 'I' for Inactive)
REMARK    1  A    between atoms: C_1  and  C_2
REMARK    2  A    between atoms: C_7  and  C_8
REMARK                            x       y       z     vdW  Elec       q    Type
REMARK                         _______ _______ _______ _____ _____    ______ ____
ROOT
ATOM      1  C   UNL     1       1.771  -0.234   0.826  0.00  0.00    +0.000 C 
ATOM      2  C   UNL     1       3.199  -0.103   0.330  0.00  0.00    +0.000 C 
ATOM      3  C   UNL     1       3.434   1.041  -0.690  0.00  0.00    +0.000 C 
ATOM      4  C   UNL     1       4.225   2.031   0.097  0.00  0.00    +0.000 C 
ATOM      5  N   UNL     1       5.568   2.365   0.237  0.00  0.00    +0.000 NA
ATOM      6  C   UNL     1       5.410   1.043   0.764  0.00  0.00    +0.000 C 
ATOM      7  C   UNL     1       4.372   0.085   1.365  0.00  0.00    +0.000 C 
ATOM      8  C   UNL     1       4.541  -1.444   1.234  0.00  0.00    +0.000 C 
ATOM      9  N   UNL     1       3.808  -1.401  -0.050  0.00  0.00    +0.000 NA
ATOM     10  H   UNL     1       5.734   3.042   0.984  0.00  0.00    +0.000 HD
ATOM     11  H   UNL     1       3.156  -2.172  -0.190  0.00  0.00    +0.000 HD
ENDROOT
TORSDOF 0
