REMARK  Name = ligand_9100661
REMARK  6 active torsions:
REMARK  status: ('A' for Active; 'I' for Inactive)
REMARK    1  A    between atoms: C_1  and  C_2
REMARK    2  A    between atoms: C_2  and  C_3
REMARK    3  A    between atoms: C_3  and  O_4
REMARK    4  A    between atoms: C_3  and  C_5
REMARK    5  A    between atoms: C_5  and  C_7
REMARK    6  A    between atoms: C_7  and  C_8
REMARK                            x       y       z     vdW  Elec       q    Type
REMARK                         _______ _______ _______ _____ _____    ______ ____
ROOT
ATOM      1  C   UNL     1       3.091   0.802   1.156  0.00  0.00    +0.000 C 
ENDROOT
BRANCH   1   3
ATOM      2  C   UNL     1       0.964   0.119  -0.058  0.00  0.00    +0.000 C 
ATOM      3  C   UNL     1       2.486   0.077  -0.052  0.00  0.00    +0.000 C 
ENDBRANCH   1   3
BRANCH   1   4
ATOM      4  O   UNL     1       2.636   0.193   2.362  0.00  0.00    +0.000 OA
ATOM      5  H   UNL     1       2.796  -0.765   2.285  0.00  0.00    +0.000 HD
ENDBRANCH   1   4
BRANCH   1   6
ATOM      6  C   UNL     1       4.629   0.800   1.111  0.00  0.00    +0.000 C 
ATOM      7  O   UNL     1       5.260   0.309   0.172  0.00  0.00    +0.000 OA
BRANCH   6   8
ATOM      8  C   UNL     1       5.348   1.494   2.258  0.00  0.00    +0.000 C 
BRANCH   8   9
ATOM      9  C   UNL     1       5.589   2.936   1.928  0.00  0.00    +0.000 C 
ATOM     10  C   UNL     1       5.119   3.958   2.654  0.00  0.00    +0.000 C 
ENDBRANCH   8   9
ENDBRANCH   6   8
ENDBRANCH   1   6
TORSDOF 5
