REMARK  Name = ligand_910061
REMARK  2 active torsions:
REMARK  status: ('A' for Active; 'I' for Inactive)
REMARK    1  A    between atoms: C_1  and  C_2
REMARK    2  A    between atoms: C_4  and  N_5
REMARK                            x       y       z     vdW  Elec       q    Type
REMARK                         _______ _______ _______ _____ _____    ______ ____
ROOT
ATOM      1  C   UNL     1       1.165  -0.037  -0.068  0.00  0.00    +0.000 C 
ATOM      2  C   UNL     1       2.603   0.302   0.054  0.00  0.00    +0.000 C 
ATOM      3  C   UNL     1       3.036   1.674   0.506  0.00  0.00    +0.000 C 
ATOM      4  C   UNL     1       4.558   1.377   0.411  0.00  0.00    +0.000 C 
ATOM      5  C   UNL     1       4.707   0.835  -1.039  0.00  0.00    +0.000 C 
ATOM      6  C   UNL     1       3.640  -0.217  -0.894  0.00  0.00    +0.000 C 
ATOM      7  N   UNL     1       3.578  -0.723   0.488  0.00  0.00    +0.000 NA
ATOM      8  C   UNL     1       4.631   0.052   1.217  0.00  0.00    +0.000 C 
ENDROOT
BRANCH   4   9
ATOM      9  N   UNL     1       5.436   2.462   0.791  0.00  0.00    +0.000 NA
ATOM     10  H   UNL     1       5.284   3.262   0.178  0.00  0.00    +0.000 HD
ATOM     11  H   UNL     1       6.408   2.184   0.660  0.00  0.00    +0.000 HD
ENDBRANCH   4   9
TORSDOF 1
