REMARK  Name = ligand_9100719
REMARK  6 active torsions:
REMARK  status: ('A' for Active; 'I' for Inactive)
REMARK    1  A    between atoms: C_1  and  C_2
REMARK    2  A    between atoms: C_3  and  O_4
REMARK    3  A    between atoms: O_4  and  C_5
REMARK    4  A    between atoms: C_5  and  C_7
REMARK    5  A    between atoms: C_7  and  C_8
REMARK    6  A    between atoms: C_8  and  O_9
REMARK                            x       y       z     vdW  Elec       q    Type
REMARK                         _______ _______ _______ _____ _____    ______ ____
ROOT
ATOM      1  C   UNL     1       5.164   2.231  -1.250  0.00  0.00    +0.000 C 
ATOM      2  O   UNL     1       4.550   3.163  -1.760  0.00  0.00    +0.000 OA
ENDROOT
BRANCH   1   3
ATOM      3  O   UNL     1       4.615   1.126  -0.647  0.00  0.00    +0.000 OA
BRANCH   3   6
ATOM      4  C   UNL     1       1.057   0.052   0.005  0.00  0.00    +0.000 C 
ATOM      5  C   UNL     1       2.549   0.088  -0.045  0.00  0.00    +0.000 C 
ATOM      6  C   UNL     1       3.221   1.100  -0.605  0.00  0.00    +0.000 C 
ENDBRANCH   3   6
ENDBRANCH   1   3
BRANCH   1   7
ATOM      7  C   UNL     1       6.666   2.152  -1.171  0.00  0.00    +0.000 C 
BRANCH   7   8
ATOM      8  C   UNL     1       7.303   3.351  -1.858  0.00  0.00    +0.000 C 
BRANCH   8   9
ATOM      9  O   UNL     1       6.977   4.557  -1.175  0.00  0.00    +0.000 OA
ATOM     10  H   UNL     1       6.031   4.732  -1.357  0.00  0.00    +0.000 HD
ENDBRANCH   8   9
ENDBRANCH   7   8
ENDBRANCH   1   7
TORSDOF 5
