REMARK  Name = ligand_9101901
REMARK  3 active torsions:
REMARK  status: ('A' for Active; 'I' for Inactive)
REMARK    1  A    between atoms: C_1  and  C_2
REMARK    2  A    between atoms: C_2  and  C_4
REMARK    3  A    between atoms: C_8  and  O_9
REMARK                            x       y       z     vdW  Elec       q    Type
REMARK                         _______ _______ _______ _____ _____    ______ ____
ROOT
ATOM      1  C   UNL     1       3.288   0.642  -1.035  0.00  0.00    +0.000 C 
ATOM      2  C   UNL     1       2.967   1.739  -1.710  0.00  0.00    +0.000 C 
ATOM      3  O   UNL     1       3.870   2.141  -2.672  0.00  0.00    +0.000 OA
ATOM      4  C   UNL     1       5.015   1.284  -2.438  0.00  0.00    +0.000 C 
ATOM      5  C   UNL     1       4.578   0.119  -1.541  0.00  0.00    +0.000 C 
ENDROOT
BRANCH   1   7
ATOM      6  C   UNL     1       1.204   0.561   0.458  0.00  0.00    +0.000 C 
ATOM      7  C   UNL     1       2.527  -0.021   0.034  0.00  0.00    +0.000 C 
ATOM      8  O   UNL     1       3.000  -1.025   0.567  0.00  0.00    +0.000 OA
ENDBRANCH   1   7
BRANCH   5   9
ATOM      9  O   UNL     1       5.516  -0.101  -0.501  0.00  0.00    +0.000 OA
ATOM     10  H   UNL     1       5.051  -0.626   0.182  0.00  0.00    +0.000 HD
ENDBRANCH   5   9
TORSDOF 2
