REMARK  Name = ligand_9101570
REMARK  4 active torsions:
REMARK  status: ('A' for Active; 'I' for Inactive)
REMARK    1  A    between atoms: C_1  and  C_2
REMARK    2  A    between atoms: C_2  and  O_3
REMARK    3  A    between atoms: O_3  and  C_4
REMARK    4  A    between atoms: C_7  and  C_8
REMARK                            x       y       z     vdW  Elec       q    Type
REMARK                         _______ _______ _______ _____ _____    ______ ____
ROOT
ATOM      1  C   UNL     1       4.495  -1.186   0.552  0.00  0.00    +0.000 C 
ATOM      2  C   UNL     1       5.217   0.061   0.009  0.00  0.00    +0.000 C 
ATOM      3  C   UNL     1       6.474  -0.286  -0.738  0.00  0.00    +0.000 C 
ATOM      4  C   UNL     1       6.746  -1.561  -1.054  0.00  0.00    +0.000 C 
ATOM      5  C   UNL     1       5.812  -2.684  -0.719  0.00  0.00    +0.000 C 
ATOM      6  O   UNL     1       4.493  -2.210  -0.445  0.00  0.00    +0.000 OA
ENDROOT
BRANCH   1   7
ATOM      7  O   UNL     1       3.158  -0.812   0.901  0.00  0.00    +0.000 OA
BRANCH   7   9
ATOM      8  C   UNL     1       1.017  -1.453   1.760  0.00  0.00    +0.000 C 
ATOM      9  C   UNL     1       2.405  -1.926   1.376  0.00  0.00    +0.000 C 
ENDBRANCH   7   9
ENDBRANCH   1   7
TORSDOF 2
