REMARK  Name = ligand_9101686
REMARK  2 active torsions:
REMARK  status: ('A' for Active; 'I' for Inactive)
REMARK    1  A    between atoms: C_1  and  C_2
REMARK    2  A    between atoms: C_2  and  C_4
REMARK                            x       y       z     vdW  Elec       q    Type
REMARK                         _______ _______ _______ _____ _____    ______ ____
ROOT
ATOM      1  C   UNL     1       3.226  -1.056   0.498  0.00  0.00    +0.000 C 
ATOM      2  C   UNL     1       4.346  -0.984   1.217  0.00  0.00    +0.000 C 
ATOM      3  C   UNL     1       4.833  -2.327   1.563  0.00  0.00    +0.000 C 
ATOM      4  O   UNL     1       3.887  -3.209   0.962  0.00  0.00    +0.000 OA
ATOM      5  C   UNL     1       2.926  -2.477   0.329  0.00  0.00    +0.000 C 
ATOM      6  O   UNL     1       1.976  -2.945  -0.269  0.00  0.00    +0.000 OA
ENDROOT
BRANCH   1   8
ATOM      7  C   UNL     1       1.167  -0.144  -0.718  0.00  0.00    +0.000 C 
ATOM      8  C   UNL     1       2.456   0.103   0.020  0.00  0.00    +0.000 C 
ATOM      9  O   UNL     1       2.851   1.246   0.248  0.00  0.00    +0.000 OA
ENDBRANCH   1   8
TORSDOF 1
