REMARK  Name = ligand_910101
REMARK  1 active torsions:
REMARK  status: ('A' for Active; 'I' for Inactive)
REMARK    1  A    between atoms: C_1  and  C_2
REMARK                            x       y       z     vdW  Elec       q    Type
REMARK                         _______ _______ _______ _____ _____    ______ ____
ROOT
ATOM      1  C   UNL     1       1.322  -0.283  -1.018  0.00  0.00    +0.000 C 
ATOM      2  C   UNL     1       2.606  -0.208  -0.147  0.00  0.00    +0.000 C 
ATOM      3  C   UNL     1       3.961   0.864   0.610  0.00  0.00    +0.000 C 
ATOM      4  C   UNL     1       2.826   1.856   0.529  0.00  0.00    +0.000 C 
ATOM      5  C   UNL     1       2.089   0.570   1.065  0.00  0.00    +0.000 C 
ATOM      6  C   UNL     1       2.762   2.363  -0.907  0.00  0.00    +0.000 C 
ATOM      7  C   UNL     1       3.374   1.720  -1.948  0.00  0.00    +0.000 C 
ATOM      8  C   UNL     1       4.011   0.317  -2.022  0.00  0.00    +0.000 C 
ATOM      9  N   UNL     1       3.702  -0.677  -0.954  0.00  0.00    +0.000 NA
ATOM     10  H   UNL     1       3.529  -1.584  -1.391  0.00  0.00    +0.000 HD
ENDROOT
TORSDOF 0
