REMARK  Name = ligand_910227
REMARK  1 active torsions:
REMARK  status: ('A' for Active; 'I' for Inactive)
REMARK    1  A    between atoms: C_1  and  C_2
REMARK                            x       y       z     vdW  Elec       q    Type
REMARK                         _______ _______ _______ _____ _____    ______ ____
ROOT
ATOM      1  C   UNL     1       1.643  -0.511   0.597  0.00  0.00    +0.000 C 
ATOM      2  C   UNL     1       3.041  -0.064   0.204  0.00  0.00    +0.000 C 
ATOM      3  C   UNL     1       3.283   1.427   0.522  0.00  0.00    +0.000 C 
ATOM      4  C   UNL     1       4.244   1.865  -0.581  0.00  0.00    +0.000 C 
ATOM      5  C   UNL     1       4.787   0.536  -1.098  0.00  0.00    +0.000 C 
ATOM      6  N   UNL     1       5.455  -0.193  -0.005  0.00  0.00    +0.000 NA
ATOM      7  C   UNL     1       4.308  -0.996   0.484  0.00  0.00    +0.000 C 
ATOM      8  C   UNL     1       3.897  -1.752  -0.813  0.00  0.00    +0.000 C 
ATOM      9  C   UNL     1       3.526  -0.313  -1.257  0.00  0.00    +0.000 C 
ATOM     10  H   UNL     1       5.843   0.460   0.674  0.00  0.00    +0.000 HD
ENDROOT
TORSDOF 0
