REMARK  Name = ligand_9102350
REMARK  5 active torsions:
REMARK  status: ('A' for Active; 'I' for Inactive)
REMARK    1  A    between atoms: C_1  and  C_2
REMARK    2  A    between atoms: C_2  and  O_3
REMARK    3  A    between atoms: C_2  and  C_4
REMARK    4  A    between atoms: C_2  and  C_8
REMARK    5  A    between atoms: C_4  and  C_5
REMARK                            x       y       z     vdW  Elec       q    Type
REMARK                         _______ _______ _______ _____ _____    ______ ____
ROOT
ATOM      1  C   UNL     1       1.011  -0.051   0.122  0.00  0.00    +0.000 C 
ATOM      2  C   UNL     1       2.529   0.041   0.030  0.00  0.00    +0.000 C 
ENDROOT
BRANCH   2   3
ATOM      3  O   UNL     1       2.918  -0.348  -1.295  0.00  0.00    +0.000 OA
ATOM      4  H   UNL     1       3.082   0.446  -1.829  0.00  0.00    +0.000 HD
ENDBRANCH   2   3
BRANCH   2   5
ATOM      5  C   UNL     1       3.136  -1.026   0.947  0.00  0.00    +0.000 C 
ATOM      6  O   UNL     1       3.814  -0.793   1.943  0.00  0.00    +0.000 OA
ENDBRANCH   2   5
BRANCH   2   7
ATOM      7  C   UNL     1       3.091   1.425   0.407  0.00  0.00    +0.000 C 
BRANCH   7   8
ATOM      8  C   UNL     1       2.522   2.569  -0.386  0.00  0.00    +0.000 C 
ATOM      9  C   UNL     1       2.943   3.982  -0.067  0.00  0.00    +0.000 C 
ATOM     10  O   UNL     1       1.677   3.454   0.357  0.00  0.00    +0.000 OA
ENDBRANCH   7   8
ENDBRANCH   2   7
TORSDOF 4
