REMARK  Name = ligand_910384
REMARK  1 active torsions:
REMARK  status: ('A' for Active; 'I' for Inactive)
REMARK    1  A    between atoms: C_1  and  C_2
REMARK                            x       y       z     vdW  Elec       q    Type
REMARK                         _______ _______ _______ _____ _____    ______ ____
ROOT
ATOM      1  C   UNL     1       1.524  -0.285   0.383  0.00  0.00    +0.000 C 
ATOM      2  C   UNL     1       2.856   0.083  -0.215  0.00  0.00    +0.000 C 
ATOM      3  C   UNL     1       2.966   1.485  -0.777  0.00  0.00    +0.000 C 
ATOM      4  C   UNL     1       3.716   2.376   0.225  0.00  0.00    +0.000 C 
ATOM      5  C   UNL     1       5.139   1.902   0.447  0.00  0.00    +0.000 C 
ATOM      6  C   UNL     1       6.136   2.762   0.707  0.00  0.00    +0.000 C 
ATOM      7  C   UNL     1       5.390   0.414   0.319  0.00  0.00    +0.000 C 
ATOM      8  C   UNL     1       4.147  -0.446   0.393  0.00  0.00    +0.000 C 
ATOM      9  N   UNL     1       3.616  -1.000  -0.847  0.00  0.00    +0.000 NA
ATOM     10  H   UNL     1       3.181  -1.911  -0.675  0.00  0.00    +0.000 HD
ENDROOT
TORSDOF 0
