REMARK  Name = ligand_9103480
REMARK  6 active torsions:
REMARK  status: ('A' for Active; 'I' for Inactive)
REMARK    1  A    between atoms: C_1  and  C_2
REMARK    2  A    between atoms: C_2  and  O_3
REMARK    3  A    between atoms: O_3  and  C_4
REMARK    4  A    between atoms: C_4  and  C_5
REMARK    5  A    between atoms: C_4  and  C_8
REMARK    6  A    between atoms: C_5  and  C_6
REMARK                            x       y       z     vdW  Elec       q    Type
REMARK                         _______ _______ _______ _____ _____    ______ ____
ROOT
ATOM      1  C   UNL     1       4.409   1.213  -0.637  0.00  0.00    +0.000 C 
ENDROOT
BRANCH   1   2
ATOM      2  C   UNL     1       4.869   2.505  -1.292  0.00  0.00    +0.000 C 
ATOM      3  O   UNL     1       5.597   3.330  -0.745  0.00  0.00    +0.000 OA
ENDBRANCH   1   2
BRANCH   1   4
ATOM      4  O   UNL     1       2.976   1.202  -0.760  0.00  0.00    +0.000 OA
BRANCH   4   6
ATOM      5  C   UNL     1       0.856   0.337  -0.031  0.00  0.00    +0.000 C 
ATOM      6  C   UNL     1       2.358   0.131  -0.047  0.00  0.00    +0.000 C 
ENDBRANCH   4   6
ENDBRANCH   1   4
BRANCH   1   7
ATOM      7  C   UNL     1       5.054   0.024  -1.356  0.00  0.00    +0.000 C 
BRANCH   7   8
ATOM      8  C   UNL     1       6.519   0.024  -1.255  0.00  0.00    +0.000 C 
ATOM      9  C   UNL     1       7.719   0.023  -1.176  0.00  0.00    +0.000 C 
ENDBRANCH   7   8
ENDBRANCH   1   7
TORSDOF 5
