REMARK  Name = ligand_9103191
REMARK  5 active torsions:
REMARK  status: ('A' for Active; 'I' for Inactive)
REMARK    1  A    between atoms: C_1  and  C_2
REMARK    2  A    between atoms: C_2  and  C_4
REMARK    3  A    between atoms: C_5  and  C_6
REMARK    4  A    between atoms: C_5  and  C_7
REMARK    5  A    between atoms: C_7  and  C_8
REMARK                            x       y       z     vdW  Elec       q    Type
REMARK                         _______ _______ _______ _____ _____    ______ ____
ROOT
ATOM      1  C   UNL     1       3.229   0.683   0.878  0.00  0.00    +0.000 C 
ATOM      2  C   UNL     1       4.576   0.714   0.905  0.00  0.00    +0.000 C 
ATOM      3  C   UNL     1       5.497   0.069  -0.098  0.00  0.00    +0.000 C 
ENDROOT
BRANCH   1   5
ATOM      4  C   UNL     1       0.950   0.500  -0.239  0.00  0.00    +0.000 C 
ATOM      5  C   UNL     1       2.360  -0.017  -0.117  0.00  0.00    +0.000 C 
ATOM      6  O   UNL     1       2.746  -0.984  -0.765  0.00  0.00    +0.000 OA
ENDBRANCH   1   5
BRANCH   2   7
ATOM      7  C   UNL     1       5.287   1.443   2.024  0.00  0.00    +0.000 C 
BRANCH   7   8
ATOM      8  C   UNL     1       5.623   2.885   1.692  0.00  0.00    +0.000 C 
ATOM      9  O   UNL     1       5.278   3.482   0.678  0.00  0.00    +0.000 OA
ENDBRANCH   7   8
ENDBRANCH   2   7
TORSDOF 3
