REMARK  Name = ligand_9103370
REMARK  8 active torsions:
REMARK  status: ('A' for Active; 'I' for Inactive)
REMARK    1  A    between atoms: C_1  and  C_2
REMARK    2  A    between atoms: C_2  and  O_3
REMARK    3  A    between atoms: C_2  and  C_4
REMARK    4  A    between atoms: C_4  and  C_5
REMARK    5  A    between atoms: C_5  and  C_6
REMARK    6  A    between atoms: C_6  and  C_7
REMARK    7  A    between atoms: C_6  and  C_8
REMARK    8  A    between atoms: C_6  and  O_9
REMARK                            x       y       z     vdW  Elec       q    Type
REMARK                         _______ _______ _______ _____ _____    ______ ____
ROOT
ATOM      1  C   UNL     1       4.115   0.546  -1.548  0.00  0.00    +0.000 C 
ENDROOT
BRANCH   1   2
ATOM      2  C   UNL     1       4.347   1.426  -2.792  0.00  0.00    +0.000 C 
ATOM      3  C   UNL     1       3.667   0.846  -4.043  0.00  0.00    +0.000 C 
ATOM      4  C   UNL     1       5.847   1.657  -3.023  0.00  0.00    +0.000 C 
BRANCH   2   5
ATOM      5  O   UNL     1       6.071   2.490  -4.156  0.00  0.00    +0.000 OA
ATOM      6  H   UNL     1       5.358   3.151  -4.194  0.00  0.00    +0.000 HD
ENDBRANCH   2   5
ENDBRANCH   1   2
BRANCH   1   7
ATOM      7  C   UNL     1       2.629   0.460  -1.178  0.00  0.00    +0.000 C 
BRANCH   7   9
ATOM      8  C   UNL     1       0.863  -0.489   0.333  0.00  0.00    +0.000 C 
ATOM      9  C   UNL     1       2.358  -0.419   0.045  0.00  0.00    +0.000 C 
BRANCH   9  10
ATOM     10  O   UNL     1       2.845  -1.738  -0.180  0.00  0.00    +0.000 OA
ATOM     11  H   UNL     1       2.368  -2.108  -0.945  0.00  0.00    +0.000 HD
ENDBRANCH   9  10
ENDBRANCH   7   9
ENDBRANCH   1   7
TORSDOF 5
