REMARK  Name = ligand_910319
REMARK  2 active torsions:
REMARK  status: ('A' for Active; 'I' for Inactive)
REMARK    1  A    between atoms: C_1  and  C_2
REMARK    2  A    between atoms: C_6  and  N_7
REMARK                            x       y       z     vdW  Elec       q    Type
REMARK                         _______ _______ _______ _____ _____    ______ ____
ROOT
ATOM      1  C   UNL     1       1.894  -0.100   0.637  0.00  0.00    +0.000 C 
ATOM      2  C   UNL     1       3.310  -0.031   0.021  0.00  0.00    +0.000 C 
ATOM      3  C   UNL     1       3.461   1.268  -0.748  0.00  0.00    +0.000 C 
ATOM      4  C   UNL     1       3.879   2.202   0.426  0.00  0.00    +0.000 C 
ATOM      5  C   UNL     1       4.757   1.342   1.371  0.00  0.00    +0.000 C 
ATOM      6  C   UNL     1       4.744  -0.024   0.732  0.00  0.00    +0.000 C 
ATOM      7  C   UNL     1       4.349  -1.526   0.956  0.00  0.00    +0.000 C 
ATOM      8  N   UNL     1       3.677  -1.415  -0.438  0.00  0.00    +0.000 NA
ATOM      9  H   UNL     1       2.896  -2.062  -0.558  0.00  0.00    +0.000 HD
ENDROOT
BRANCH   6  10
ATOM     10  N   UNL     1       5.878  -0.093  -0.254  0.00  0.00    +0.000 NA
ATOM     11  H   UNL     1       6.731  -0.475   0.148  0.00  0.00    +0.000 HD
ATOM     12  H   UNL     1       5.625  -0.739  -1.016  0.00  0.00    +0.000 HD
ENDBRANCH   6  10
TORSDOF 1
