REMARK  Name = ligand_9105998
REMARK  2 active torsions:
REMARK  status: ('A' for Active; 'I' for Inactive)
REMARK    1  A    between atoms: C_1  and  O_2
REMARK    2  A    between atoms: O_2  and  C_3
REMARK                            x       y       z     vdW  Elec       q    Type
REMARK                         _______ _______ _______ _____ _____    ______ ____
ROOT
ATOM      1  C   UNL     1       3.008  -0.866  -0.630  0.00  0.00    +0.000 C 
ATOM      2  C   UNL     1       3.905  -1.513   0.131  0.00  0.00    +0.000 C 
ATOM      3  C   UNL     1       4.833  -2.637  -0.209  0.00  0.00    +0.000 C 
ATOM      4  C   UNL     1       5.369  -2.647  -1.634  0.00  0.00    +0.000 C 
ATOM      5  C   UNL     1       4.333  -2.966  -2.658  0.00  0.00    +0.000 C 
ATOM      6  C   UNL     1       3.178  -2.309  -2.822  0.00  0.00    +0.000 C 
ATOM      7  C   UNL     1       2.626  -1.127  -2.076  0.00  0.00    +0.000 C 
ENDROOT
BRANCH   1   9
ATOM      8  C   UNL     1       1.040   0.493  -0.375  0.00  0.00    +0.000 C 
ATOM      9  O   UNL     1       2.383   0.214   0.005  0.00  0.00    +0.000 OA
ENDBRANCH   1   9
TORSDOF 1
