REMARK  Name = ligand_9105023
REMARK  2 active torsions:
REMARK  status: ('A' for Active; 'I' for Inactive)
REMARK    1  A    between atoms: C_1  and  O_2
REMARK    2  A    between atoms: O_2  and  C_3
REMARK                            x       y       z     vdW  Elec       q    Type
REMARK                         _______ _______ _______ _____ _____    ______ ____
ROOT
ATOM      1  C   UNL     1       2.932   0.901   1.535  0.00  0.00    +0.000 C 
ATOM      2  C   UNL     1       3.800   2.118   1.783  0.00  0.00    +0.000 C 
ATOM      3  C   UNL     1       2.512   1.950   2.535  0.00  0.00    +0.000 C 
ATOM      4  O   UNL     1       2.652   1.669   3.944  0.00  0.00    +0.000 OA
ATOM      5  C   UNL     1       3.258   0.420   4.254  0.00  0.00    +0.000 C 
ATOM      6  O   UNL     1       2.814  -0.635   3.414  0.00  0.00    +0.000 OA
ATOM      7  C   UNL     1       3.282  -0.457   2.076  0.00  0.00    +0.000 C 
ENDROOT
BRANCH   1   9
ATOM      8  C   UNL     1       3.033   0.673  -0.861  0.00  0.00    +0.000 C 
ATOM      9  O   UNL     1       2.211   0.909   0.278  0.00  0.00    +0.000 OA
ENDBRANCH   1   9
TORSDOF 1
