REMARK  Name = ligand_9105348
REMARK  2 active torsions:
REMARK  status: ('A' for Active; 'I' for Inactive)
REMARK    1  A    between atoms: C_1  and  O_2
REMARK    2  A    between atoms: O_2  and  C_3
REMARK                            x       y       z     vdW  Elec       q    Type
REMARK                         _______ _______ _______ _____ _____    ______ ____
ROOT
ATOM      1  C   UNL     1       3.047   0.131  -0.988  0.00  0.00    +0.000 C 
ATOM      2  C   UNL     1       3.976  -0.808  -1.269  0.00  0.00    +0.000 C 
ATOM      3  C   UNL     1       4.237  -0.944  -2.712  0.00  0.00    +0.000 C 
ATOM      4  C   UNL     1       4.791   0.201  -3.512  0.00  0.00    +0.000 C 
ATOM      5  C   UNL     1       3.300   0.093  -3.353  0.00  0.00    +0.000 C 
ATOM      6  C   UNL     1       2.608   0.772  -2.226  0.00  0.00    +0.000 C 
ATOM      7  C   UNL     1       1.768   1.812  -2.309  0.00  0.00    +0.000 C 
ENDROOT
BRANCH   1   9
ATOM      8  C   UNL     1       3.290   0.180   1.348  0.00  0.00    +0.000 C 
ATOM      9  O   UNL     1       2.548   0.571   0.201  0.00  0.00    +0.000 OA
ENDBRANCH   1   9
TORSDOF 1
