REMARK  Name = ligand_9106353
REMARK  3 active torsions:
REMARK  status: ('A' for Active; 'I' for Inactive)
REMARK    1  A    between atoms: C_1  and  O_2
REMARK    2  A    between atoms: O_2  and  C_3
REMARK    3  A    between atoms: C_7  and  C_8
REMARK                            x       y       z     vdW  Elec       q    Type
REMARK                         _______ _______ _______ _____ _____    ______ ____
ROOT
ATOM      1  C   UNL     1       3.163  -0.290  -1.128  0.00  0.00    +0.000 C 
ATOM      2  C   UNL     1       2.849   0.254  -2.306  0.00  0.00    +0.000 C 
ATOM      3  C   UNL     1       3.839  -0.177  -3.320  0.00  0.00    +0.000 C 
ATOM      4  O   UNL     1       4.653  -1.176  -2.683  0.00  0.00    +0.000 OA
ATOM      5  C   UNL     1       4.384  -1.144  -1.263  0.00  0.00    +0.000 C 
ENDROOT
BRANCH   1   7
ATOM      6  C   UNL     1       1.337   0.574   0.103  0.00  0.00    +0.000 C 
ATOM      7  O   UNL     1       2.538  -0.191   0.085  0.00  0.00    +0.000 OA
ENDBRANCH   1   7
BRANCH   5   8
ATOM      8  C   UNL     1       5.575  -0.608  -0.509  0.00  0.00    +0.000 C 
ATOM      9  C   UNL     1       6.738  -0.203  -1.042  0.00  0.00    +0.000 C 
ENDBRANCH   5   8
TORSDOF 2
