REMARK  Name = ligand_9107433
REMARK  2 active torsions:
REMARK  status: ('A' for Active; 'I' for Inactive)
REMARK    1  A    between atoms: C_1  and  O_2
REMARK    2  A    between atoms: O_2  and  C_3
REMARK                            x       y       z     vdW  Elec       q    Type
REMARK                         _______ _______ _______ _____ _____    ______ ____
ROOT
ATOM      1  C   UNL     1       3.154   1.093   0.407  0.00  0.00    +0.000 C 
ATOM      2  C   UNL     1       4.480   1.262   0.363  0.00  0.00    +0.000 C 
ATOM      3  C   UNL     1       5.169   2.564   0.662  0.00  0.00    +0.000 C 
ATOM      4  O   UNL     1       6.357   2.559  -0.161  0.00  0.00    +0.000 OA
ATOM      5  C   UNL     1       6.701   1.178  -0.447  0.00  0.00    +0.000 C 
ATOM      6  C   UNL     1       5.981   0.459  -1.547  0.00  0.00    +0.000 C 
ATOM      7  C   UNL     1       5.491   0.323  -0.134  0.00  0.00    +0.000 C 
ENDROOT
BRANCH   1   9
ATOM      8  C   UNL     1       1.246   0.156  -0.504  0.00  0.00    +0.000 C 
ATOM      9  O   UNL     1       2.541  -0.078   0.038  0.00  0.00    +0.000 OA
ENDBRANCH   1   9
TORSDOF 1
