REMARK  Name = ligand_9107891
REMARK  5 active torsions:
REMARK  status: ('A' for Active; 'I' for Inactive)
REMARK    1  A    between atoms: C_1  and  O_2
REMARK    2  A    between atoms: O_2  and  C_3
REMARK    3  A    between atoms: C_4  and  C_5
REMARK    4  A    between atoms: C_5  and  C_6
REMARK    5  A    between atoms: C_8  and  O_9
REMARK                            x       y       z     vdW  Elec       q    Type
REMARK                         _______ _______ _______ _____ _____    ______ ____
ROOT
ATOM      1  C   UNL     1       5.270  -0.441  -2.362  0.00  0.00    +0.000 C 
ENDROOT
BRANCH   1   2
ATOM      2  C   UNL     1       6.757  -0.426  -2.163  0.00  0.00    +0.000 C 
ATOM      3  C   UNL     1       7.472   0.824  -1.711  0.00  0.00    +0.000 C 
ATOM      4  C   UNL     1       7.700   0.292  -3.097  0.00  0.00    +0.000 C 
BRANCH   4   5
ATOM      5  O   UNL     1       7.126   1.046  -4.172  0.00  0.00    +0.000 OA
ATOM      6  H   UNL     1       6.490   1.713  -3.862  0.00  0.00    +0.000 HD
ENDBRANCH   4   5
ENDBRANCH   1   2
BRANCH   1   8
ATOM      7  C   UNL     1       3.982  -1.039  -0.290  0.00  0.00    +0.000 C 
ATOM      8  C   UNL     1       4.496  -0.125  -1.119  0.00  0.00    +0.000 C 
BRANCH   7  10
ATOM      9  C   UNL     1       2.908  -1.779   1.632  0.00  0.00    +0.000 C 
ATOM     10  O   UNL     1       3.279  -0.667   0.823  0.00  0.00    +0.000 OA
ENDBRANCH   7  10
ENDBRANCH   1   8
TORSDOF 4
