REMARK  Name = ligand_9107145
REMARK  4 active torsions:
REMARK  status: ('A' for Active; 'I' for Inactive)
REMARK    1  A    between atoms: C_1  and  O_2
REMARK    2  A    between atoms: O_2  and  C_3
REMARK    3  A    between atoms: C_3  and  C_4
REMARK    4  A    between atoms: C_4  and  C_8
REMARK                            x       y       z     vdW  Elec       q    Type
REMARK                         _______ _______ _______ _____ _____    ______ ____
ROOT
ATOM      1  C   UNL     1       4.428  -1.050   0.886  0.00  0.00    +0.000 C 
ATOM      2  C   UNL     1       5.148  -1.586   2.175  0.00  0.00    +0.000 C 
ATOM      3  C   UNL     1       6.145  -0.419   2.081  0.00  0.00    +0.000 C 
ATOM      4  C   UNL     1       5.157   0.303   1.150  0.00  0.00    +0.000 C 
ENDROOT
BRANCH   1   5
ATOM      5  C   UNL     1       4.802  -1.768  -0.386  0.00  0.00    +0.000 C 
ATOM      6  C   UNL     1       4.960  -1.152  -1.573  0.00  0.00    +0.000 C 
ENDBRANCH   1   5
BRANCH   1   7
ATOM      7  C   UNL     1       2.903  -0.962   1.064  0.00  0.00    +0.000 C 
BRANCH   7   9
ATOM      8  C   UNL     1       0.982  -2.253   1.536  0.00  0.00    +0.000 C 
ATOM      9  O   UNL     1       2.392  -2.265   1.363  0.00  0.00    +0.000 OA
ENDBRANCH   7   9
ENDBRANCH   1   7
TORSDOF 3
