REMARK  Name = ligand_9107925
REMARK  6 active torsions:
REMARK  status: ('A' for Active; 'I' for Inactive)
REMARK    1  A    between atoms: C_1  and  O_2
REMARK    2  A    between atoms: O_2  and  C_3
REMARK    3  A    between atoms: C_3  and  C_4
REMARK    4  A    between atoms: C_4  and  C_5
REMARK    5  A    between atoms: C_5  and  C_6
REMARK    6  A    between atoms: C_6  and  C_7
REMARK                            x       y       z     vdW  Elec       q    Type
REMARK                         _______ _______ _______ _____ _____    ______ ____
ROOT
ATOM      1  C   UNL     1       4.948  -2.175  -1.611  0.00  0.00    +0.000 C 
ENDROOT
BRANCH   1   2
ATOM      2  C   UNL     1       6.443  -2.421  -1.486  0.00  0.00    +0.000 C 
ATOM      3  C   UNL     1       6.934  -2.752  -0.098  0.00  0.00    +0.000 C 
ATOM      4  C   UNL     1       7.384  -1.697  -2.428  0.00  0.00    +0.000 C 
ATOM      5  C   UNL     1       7.108  -3.157  -2.631  0.00  0.00    +0.000 C 
ENDBRANCH   1   2
BRANCH   1   6
ATOM      6  C   UNL     1       4.423  -1.010  -0.771  0.00  0.00    +0.000 C 
BRANCH   6   7
ATOM      7  C   UNL     1       5.042   0.330  -1.149  0.00  0.00    +0.000 C 
BRANCH   7   9
ATOM      8  C   UNL     1       5.018   2.624  -0.627  0.00  0.00    +0.000 C 
ATOM      9  O   UNL     1       4.453   1.350  -0.342  0.00  0.00    +0.000 OA
ENDBRANCH   7   9
ENDBRANCH   6   7
ENDBRANCH   1   6
TORSDOF 4
