REMARK  Name = ligand_9108842
REMARK  6 active torsions:
REMARK  status: ('A' for Active; 'I' for Inactive)
REMARK    1  A    between atoms: C_1  and  O_2
REMARK    2  A    between atoms: O_2  and  C_3
REMARK    3  A    between atoms: C_3  and  C_4
REMARK    4  A    between atoms: C_5  and  C_6
REMARK    5  A    between atoms: C_6  and  C_7
REMARK    6  A    between atoms: C_6  and  C_8
REMARK                            x       y       z     vdW  Elec       q    Type
REMARK                         _______ _______ _______ _____ _____    ______ ____
ROOT
ATOM      1  C   UNL     1       4.330   0.341   1.434  0.00  0.00    +0.000 C 
ATOM      2  C   UNL     1       5.095   0.611   2.503  0.00  0.00    +0.000 C 
ENDROOT
BRANCH   2   3
ATOM      3  C   UNL     1       6.602   0.629   2.484  0.00  0.00    +0.000 C 
ATOM      4  C   UNL     1       7.141   2.003   2.875  0.00  0.00    +0.000 C 
BRANCH   3   5
ATOM      5  C   UNL     1       7.116  -0.434   3.440  0.00  0.00    +0.000 C 
ATOM      6  O   UNL     1       7.340  -0.250   4.635  0.00  0.00    +0.000 OA
ENDBRANCH   3   5
ENDBRANCH   2   3
BRANCH   1   7
ATOM      7  C   UNL     1       2.833   0.350   1.437  0.00  0.00    +0.000 C 
BRANCH   7   9
ATOM      8  C   UNL     1       0.968  -1.026   1.044  0.00  0.00    +0.000 C 
ATOM      9  O   UNL     1       2.387  -0.948   1.055  0.00  0.00    +0.000 OA
ENDBRANCH   7   9
ENDBRANCH   1   7
TORSDOF 4
