REMARK  Name = ligand_9108080
REMARK  5 active torsions:
REMARK  status: ('A' for Active; 'I' for Inactive)
REMARK    1  A    between atoms: C_1  and  O_2
REMARK    2  A    between atoms: O_2  and  C_3
REMARK    3  A    between atoms: C_4  and  C_5
REMARK    4  A    between atoms: C_4  and  C_8
REMARK    5  A    between atoms: C_6  and  C_7
REMARK                            x       y       z     vdW  Elec       q    Type
REMARK                         _______ _______ _______ _____ _____    ______ ____
ROOT
ATOM      1  C   UNL     1       3.063  -0.986  -0.770  0.00  0.00    +0.000 C 
ATOM      2  C   UNL     1       4.405  -1.031  -0.732  0.00  0.00    +0.000 C 
ENDROOT
BRANCH   2   3
ATOM      3  C   UNL     1       5.170  -0.053   0.018  0.00  0.00    +0.000 C 
ATOM      4  C   UNL     1       6.088  -0.361   0.947  0.00  0.00    +0.000 C 
ATOM      5  C   UNL     1       6.849   0.655   1.733  0.00  0.00    +0.000 C 
ENDBRANCH   2   3
BRANCH   1   7
ATOM      6  C   UNL     1       0.923  -0.254  -0.195  0.00  0.00    +0.000 C 
ATOM      7  O   UNL     1       2.327  -0.048  -0.088  0.00  0.00    +0.000 OA
ENDBRANCH   1   7
BRANCH   2   8
ATOM      8  C   UNL     1       5.105  -2.027  -1.480  0.00  0.00    +0.000 C 
ATOM      9  C   UNL     1       5.708  -2.842  -2.126  0.00  0.00    +0.000 C 
ENDBRANCH   2   8
TORSDOF 3
