REMARK  Name = ligand_9108884
REMARK  8 active torsions:
REMARK  status: ('A' for Active; 'I' for Inactive)
REMARK    1  A    between atoms: C_1  and  O_2
REMARK    2  A    between atoms: O_2  and  C_3
REMARK    3  A    between atoms: C_3  and  C_4
REMARK    4  A    between atoms: C_4  and  C_5
REMARK    5  A    between atoms: C_4  and  C_6
REMARK    6  A    between atoms: C_6  and  C_7
REMARK    7  A    between atoms: C_6  and  C_8
REMARK    8  A    between atoms: C_6  and  O_9
REMARK                            x       y       z     vdW  Elec       q    Type
REMARK                         _______ _______ _______ _____ _____    ______ ____
ROOT
ATOM      1  C   UNL     1       3.977   1.382   0.111  0.00  0.00    +0.000 C 
ATOM      2  C   UNL     1       4.674   0.923  -1.178  0.00  0.00    +0.000 C 
ENDROOT
BRANCH   1   3
ATOM      3  C   UNL     1       4.272   2.859   0.494  0.00  0.00    +0.000 C 
ATOM      4  C   UNL     1       3.718   3.883  -0.511  0.00  0.00    +0.000 C 
ATOM      5  C   UNL     1       5.761   3.104   0.788  0.00  0.00    +0.000 C 
BRANCH   3   6
ATOM      6  O   UNL     1       5.974   4.434   1.249  0.00  0.00    +0.000 OA
ATOM      7  H   UNL     1       5.295   4.636   1.915  0.00  0.00    +0.000 HD
ENDBRANCH   3   6
ENDBRANCH   1   3
BRANCH   1   8
ATOM      8  C   UNL     1       2.457   1.149   0.026  0.00  0.00    +0.000 C 
BRANCH   8  10
ATOM      9  C   UNL     1       0.779  -0.478  -0.205  0.00  0.00    +0.000 C 
ATOM     10  O   UNL     1       2.179  -0.245  -0.105  0.00  0.00    +0.000 OA
ENDBRANCH   8  10
ENDBRANCH   1   8
TORSDOF 4
