REMARK  Name = ligand_9108489
REMARK  7 active torsions:
REMARK  status: ('A' for Active; 'I' for Inactive)
REMARK    1  A    between atoms: C_1  and  O_2
REMARK    2  A    between atoms: O_2  and  C_3
REMARK    3  A    between atoms: C_3  and  C_4
REMARK    4  A    between atoms: C_4  and  C_5
REMARK    5  A    between atoms: C_6  and  C_7
REMARK    6  A    between atoms: C_7  and  C_8
REMARK    7  A    between atoms: C_7  and  C_9
REMARK                            x       y       z     vdW  Elec       q    Type
REMARK                         _______ _______ _______ _____ _____    ______ ____
ROOT
ATOM      1  C   UNL     1       4.523   1.290  -0.131  0.00  0.00    +0.000 C 
ATOM      2  C   UNL     1       5.124  -0.066   0.127  0.00  0.00    +0.000 C 
ATOM      3  C   UNL     1       5.258   2.405  -0.325  0.00  0.00    +0.000 C 
ENDROOT
BRANCH   3   4
ATOM      4  C   UNL     1       6.766   2.520  -0.326  0.00  0.00    +0.000 C 
ATOM      5  C   UNL     1       7.259   3.017  -1.686  0.00  0.00    +0.000 C 
ATOM      6  C   UNL     1       7.216   3.467   0.785  0.00  0.00    +0.000 C 
ENDBRANCH   3   4
BRANCH   1   7
ATOM      7  C   UNL     1       3.015   1.333  -0.185  0.00  0.00    +0.000 C 
BRANCH   7   9
ATOM      8  C   UNL     1       1.080   0.968   1.104  0.00  0.00    +0.000 C 
ATOM      9  O   UNL     1       2.499   0.950   1.088  0.00  0.00    +0.000 OA
ENDBRANCH   7   9
ENDBRANCH   1   7
TORSDOF 3
