REMARK  Name = ligand_9108929
REMARK  7 active torsions:
REMARK  status: ('A' for Active; 'I' for Inactive)
REMARK    1  A    between atoms: C_1  and  O_2
REMARK    2  A    between atoms: O_2  and  C_3
REMARK    3  A    between atoms: C_3  and  C_4
REMARK    4  A    between atoms: C_4  and  C_5
REMARK    5  A    between atoms: C_6  and  C_7
REMARK    6  A    between atoms: C_7  and  C_8
REMARK    7  A    between atoms: C_7  and  O_9
REMARK                            x       y       z     vdW  Elec       q    Type
REMARK                         _______ _______ _______ _____ _____    ______ ____
ROOT
ATOM      1  C   UNL     1       4.870   0.299  -2.670  0.00  0.00    +0.000 C 
ATOM      2  C   UNL     1       5.305   0.442  -3.890  0.00  0.00    +0.000 C 
ENDROOT
BRANCH   2   3
ATOM      3  C   UNL     1       5.812   0.609  -5.314  0.00  0.00    +0.000 C 
ATOM      4  C   UNL     1       4.986   0.442  -6.558  0.00  0.00    +0.000 C 
BRANCH   3   5
ATOM      5  O   UNL     1       5.748   0.969  -7.661  0.00  0.00    +0.000 OA
ATOM      6  H   UNL     1       6.030   1.876  -7.443  0.00  0.00    +0.000 HD
ENDBRANCH   3   5
ENDBRANCH   2   3
BRANCH   1   7
ATOM      7  C   UNL     1       4.364   0.132  -1.246  0.00  0.00    +0.000 C 
BRANCH   7   8
ATOM      8  C   UNL     1       2.839   0.145  -1.235  0.00  0.00    +0.000 C 
BRANCH   8  10
ATOM      9  C   UNL     1       0.942   0.011   0.157  0.00  0.00    +0.000 C 
ATOM     10  O   UNL     1       2.367  -0.003   0.106  0.00  0.00    +0.000 OA
ENDBRANCH   8  10
ENDBRANCH   7   8
ENDBRANCH   1   7
TORSDOF 5
