REMARK  Name = ligand_9109957
REMARK  5 active torsions:
REMARK  status: ('A' for Active; 'I' for Inactive)
REMARK    1  A    between atoms: C_1  and  O_2
REMARK    2  A    between atoms: O_2  and  C_3
REMARK    3  A    between atoms: C_4  and  O_5
REMARK    4  A    between atoms: C_4  and  C_8
REMARK    5  A    between atoms: O_5  and  C_6
REMARK                            x       y       z     vdW  Elec       q    Type
REMARK                         _______ _______ _______ _____ _____    ______ ____
ROOT
ATOM      1  C   UNL     1       3.255  -1.075  -0.081  0.00  0.00    +0.000 C 
ATOM      2  C   UNL     1       4.600  -1.065  -0.067  0.00  0.00    +0.000 C 
ENDROOT
BRANCH   1   4
ATOM      3  C   UNL     1       2.829   1.277   0.109  0.00  0.00    +0.000 C 
ATOM      4  O   UNL     1       2.344  -0.056   0.008  0.00  0.00    +0.000 OA
ENDBRANCH   1   4
BRANCH   2   5
ATOM      5  C   UNL     1       5.283  -2.395  -0.115  0.00  0.00    +0.000 C 
ATOM      6  O   UNL     1       4.737  -3.437  -0.459  0.00  0.00    +0.000 OA
ENDBRANCH   2   5
BRANCH   2   7
ATOM      7  O   UNL     1       5.351   0.081   0.123  0.00  0.00    +0.000 OA
BRANCH   7   8
ATOM      8  C   UNL     1       6.559   0.220  -0.510  0.00  0.00    +0.000 C 
ATOM      9  C   UNL     1       7.499   1.046  -0.050  0.00  0.00    +0.000 C 
ENDBRANCH   7   8
ENDBRANCH   2   7
TORSDOF 4
