REMARK  Name = ligand_9110160
REMARK  5 active torsions:
REMARK  status: ('A' for Active; 'I' for Inactive)
REMARK    1  A    between atoms: C_1  and  O_2
REMARK    2  A    between atoms: O_2  and  C_3
REMARK    3  A    between atoms: C_3  and  C_5
REMARK    4  A    between atoms: C_6  and  C_7
REMARK    5  A    between atoms: C_8  and  O_9
REMARK                            x       y       z     vdW  Elec       q    Type
REMARK                         _______ _______ _______ _____ _____    ______ ____
ROOT
ATOM      1  C   UNL     1       4.716   0.506   0.802  0.00  0.00    +0.000 C 
ATOM      2  C   UNL     1       5.285   0.361  -0.628  0.00  0.00    +0.000 C 
ATOM      3  C   UNL     1       6.467  -0.420  -0.031  0.00  0.00    +0.000 C 
ATOM      4  C   UNL     1       5.581  -0.723   1.196  0.00  0.00    +0.000 C 
ENDROOT
BRANCH   1   5
ATOM      5  C   UNL     1       3.196   0.390   1.010  0.00  0.00    +0.000 C 
ATOM      6  O   UNL     1       2.655  -0.400   1.785  0.00  0.00    +0.000 OA
BRANCH   5   8
ATOM      7  C   UNL     1       1.086   1.233   0.408  0.00  0.00    +0.000 C 
ATOM      8  O   UNL     1       2.505   1.286   0.243  0.00  0.00    +0.000 OA
ENDBRANCH   5   8
ENDBRANCH   1   5
BRANCH   4   9
ATOM      9  O   UNL     1       4.948  -2.019   1.179  0.00  0.00    +0.000 OA
ATOM     10  H   UNL     1       4.188  -1.937   1.791  0.00  0.00    +0.000 HD
ENDBRANCH   4   9
TORSDOF 3
