REMARK  Name = ligand_9110425
REMARK  6 active torsions:
REMARK  status: ('A' for Active; 'I' for Inactive)
REMARK    1  A    between atoms: C_1  and  O_2
REMARK    2  A    between atoms: O_2  and  C_3
REMARK    3  A    between atoms: C_3  and  C_5
REMARK    4  A    between atoms: C_5  and  C_6
REMARK    5  A    between atoms: C_7  and  C_8
REMARK    6  A    between atoms: C_8  and  O_9
REMARK                            x       y       z     vdW  Elec       q    Type
REMARK                         _______ _______ _______ _____ _____    ______ ____
ROOT
ATOM      1  C   UNL     1       4.432  -0.934  -0.518  0.00  0.00    +0.000 C 
ENDROOT
BRANCH   1   2
ATOM      2  C   UNL     1       2.933  -0.942  -0.747  0.00  0.00    +0.000 C 
ATOM      3  O   UNL     1       2.075  -1.133   0.106  0.00  0.00    +0.000 OA
BRANCH   2   5
ATOM      4  C   UNL     1       1.265  -0.691  -2.355  0.00  0.00    +0.000 C 
ATOM      5  O   UNL     1       2.664  -0.707  -2.065  0.00  0.00    +0.000 OA
ENDBRANCH   2   5
ENDBRANCH   1   2
BRANCH   1   6
ATOM      6  C   UNL     1       4.759  -1.160   0.899  0.00  0.00    +0.000 C 
ATOM      7  C   UNL     1       4.913  -1.357   2.074  0.00  0.00    +0.000 C 
BRANCH   7   8
ATOM      8  C   UNL     1       4.998  -1.606   3.513  0.00  0.00    +0.000 C 
BRANCH   8   9
ATOM      9  O   UNL     1       4.710  -0.414   4.231  0.00  0.00    +0.000 OA
ATOM     10  H   UNL     1       5.230   0.294   3.816  0.00  0.00    +0.000 HD
ENDBRANCH   8   9
ENDBRANCH   7   8
ENDBRANCH   1   6
TORSDOF 5
