REMARK  Name = ligand_9110327
REMARK  6 active torsions:
REMARK  status: ('A' for Active; 'I' for Inactive)
REMARK    1  A    between atoms: C_1  and  O_2
REMARK    2  A    between atoms: O_2  and  C_3
REMARK    3  A    between atoms: C_3  and  O_4
REMARK    4  A    between atoms: C_3  and  C_6
REMARK    5  A    between atoms: C_3  and  C_8
REMARK    6  A    between atoms: O_4  and  C_5
REMARK                            x       y       z     vdW  Elec       q    Type
REMARK                         _______ _______ _______ _____ _____    ______ ____
ROOT
ATOM      1  C   UNL     1       2.879   0.221  -1.338  0.00  0.00    +0.000 C 
ENDROOT
BRANCH   1   3
ATOM      2  C   UNL     1       2.941  -1.219   0.585  0.00  0.00    +0.000 C 
ATOM      3  O   UNL     1       2.520   0.022   0.034  0.00  0.00    +0.000 OA
ENDBRANCH   1   3
BRANCH   1   4
ATOM      4  O   UNL     1       2.404  -0.821  -2.198  0.00  0.00    +0.000 OA
ATOM      5  C   UNL     1       0.993  -0.986  -2.215  0.00  0.00    +0.000 C 
ENDBRANCH   1   4
BRANCH   1   6
ATOM      6  C   UNL     1       2.327   1.554  -1.817  0.00  0.00    +0.000 C 
ATOM      7  C   UNL     1       1.616   2.444  -1.106  0.00  0.00    +0.000 C 
ENDBRANCH   1   6
BRANCH   1   8
ATOM      8  C   UNL     1       4.392   0.301  -1.432  0.00  0.00    +0.000 C 
ATOM      9  C   UNL     1       5.208  -0.483  -2.155  0.00  0.00    +0.000 C 
ENDBRANCH   1   8
TORSDOF 4
