REMARK  Name = ligand_9110763
REMARK  2 active torsions:
REMARK  status: ('A' for Active; 'I' for Inactive)
REMARK    1  A    between atoms: O_1  and  C_2
REMARK    2  A    between atoms: C_7  and  O_8
REMARK                            x       y       z     vdW  Elec       q    Type
REMARK                         _______ _______ _______ _____ _____    ______ ____
ROOT
ATOM      1  C   UNL     1       2.482   0.060   0.115  0.00  0.00    +0.000 C 
ATOM      2  C   UNL     1       2.821   1.463   0.532  0.00  0.00    +0.000 C 
ATOM      3  C   UNL     1       4.375   1.259   0.453  0.00  0.00    +0.000 C 
ATOM      4  C   UNL     1       4.534   0.675  -0.993  0.00  0.00    +0.000 C 
ATOM      5  C   UNL     1       3.524  -0.433  -0.823  0.00  0.00    +0.000 C 
ATOM      6  C   UNL     1       3.549  -0.843   0.603  0.00  0.00    +0.000 C 
ATOM      7  C   UNL     1       4.566  -0.021   1.337  0.00  0.00    +0.000 C 
ENDROOT
BRANCH   1   8
ATOM      8  O   UNL     1       1.142  -0.381  -0.008  0.00  0.00    +0.000 OA
ATOM      9  H   UNL     1       0.581   0.300  -0.414  0.00  0.00    +0.000 HD
ENDBRANCH   1   8
BRANCH   6  10
ATOM     10  O   UNL     1       3.286  -2.186   0.961  0.00  0.00    +0.000 OA
ATOM     11  H   UNL     1       2.446  -2.479   0.563  0.00  0.00    +0.000 HD
ENDBRANCH   6  10
TORSDOF 2
