REMARK  Name = ligand_9111902
REMARK  2 active torsions:
REMARK  status: ('A' for Active; 'I' for Inactive)
REMARK    1  A    between atoms: O_1  and  C_2
REMARK    2  A    between atoms: C_8  and  O_9
REMARK                            x       y       z     vdW  Elec       q    Type
REMARK                         _______ _______ _______ _____ _____    ______ ____
ROOT
ATOM      1  C   UNL     1       2.158  -0.187   0.018  0.00  0.00    +0.000 C 
ATOM      2  C   UNL     1       3.331   0.171  -0.865  0.00  0.00    +0.000 C 
ATOM      3  O   UNL     1       3.037   0.721  -2.179  0.00  0.00    +0.000 OA
ATOM      4  C   UNL     1       3.276  -0.174  -3.198  0.00  0.00    +0.000 C 
ATOM      5  C   UNL     1       3.051  -1.489  -3.100  0.00  0.00    +0.000 C 
ATOM      6  C   UNL     1       2.552  -2.075  -1.815  0.00  0.00    +0.000 C 
ATOM      7  C   UNL     1       2.991  -1.280  -0.612  0.00  0.00    +0.000 C 
ENDROOT
BRANCH   1   8
ATOM      8  O   UNL     1       0.828  -0.011  -0.498  0.00  0.00    +0.000 OA
ATOM      9  H   UNL     1       0.528   0.902  -0.360  0.00  0.00    +0.000 HD
ENDBRANCH   1   8
BRANCH   7  10
ATOM     10  O   UNL     1       3.885  -1.979   0.283  0.00  0.00    +0.000 OA
ATOM     11  H   UNL     1       3.444  -2.754   0.669  0.00  0.00    +0.000 HD
ENDBRANCH   7  10
TORSDOF 2
