REMARK  Name = ligand_9112773
REMARK  1 active torsions:
REMARK  status: ('A' for Active; 'I' for Inactive)
REMARK    1  A    between atoms: O_1  and  C_2
REMARK                            x       y       z     vdW  Elec       q    Type
REMARK                         _______ _______ _______ _____ _____    ______ ____
ROOT
ATOM      1  C   UNL     1       2.404  -0.026  -0.081  0.00  0.00    +0.000 C 
ATOM      2  C   UNL     1       3.053  -1.168  -0.896  0.00  0.00    +0.000 C 
ATOM      3  C   UNL     1       2.876  -0.606  -2.288  0.00  0.00    +0.000 C 
ATOM      4  O   UNL     1       3.560  -1.113  -3.426  0.00  0.00    +0.000 OA
ATOM      5  C   UNL     1       3.525   0.059  -4.202  0.00  0.00    +0.000 C 
ATOM      6  C   UNL     1       3.353   1.197  -3.520  0.00  0.00    +0.000 C 
ATOM      7  C   UNL     1       3.412   0.806  -2.098  0.00  0.00    +0.000 C 
ATOM      8  C   UNL     1       2.609   1.279  -0.901  0.00  0.00    +0.000 C 
ENDROOT
BRANCH   1   9
ATOM      9  O   UNL     1       0.999  -0.251   0.032  0.00  0.00    +0.000 OA
ATOM     10  H   UNL     1       0.866  -1.110   0.469  0.00  0.00    +0.000 HD
ENDBRANCH   1   9
TORSDOF 1
