REMARK  Name = ligand_9112409
REMARK  0 active torsions:
REMARK  status: ('A' for Active; 'I' for Inactive)
REMARK                            x       y       z     vdW  Elec       q    Type
REMARK                         _______ _______ _______ _____ _____    ______ ____
ROOT
ATOM      1  O   UNL     1       1.149   0.013   0.015  0.00  0.00    +0.000 OA
ATOM      2  C   UNL     1       2.375   0.016  -0.049  0.00  0.00    +0.000 C 
ATOM      3  C   UNL     1       3.186  -1.242  -0.262  0.00  0.00    +0.000 C 
ATOM      4  C   UNL     1       4.654  -0.813  -0.187  0.00  0.00    +0.000 C 
ATOM      5  C   UNL     1       4.972  -0.142   1.156  0.00  0.00    +0.000 C 
ATOM      6  C   UNL     1       4.066   1.083   1.345  0.00  0.00    +0.000 C 
ATOM      7  C   UNL     1       3.202   1.275   0.098  0.00  0.00    +0.000 C 
ATOM      8  C   UNL     1       4.084   1.309  -1.146  0.00  0.00    +0.000 C 
ATOM      9  O   UNL     1       4.919   0.139  -1.233  0.00  0.00    +0.000 OA
ENDROOT
TORSDOF 0
