REMARK  Name = ligand_9113904
REMARK  3 active torsions:
REMARK  status: ('A' for Active; 'I' for Inactive)
REMARK    1  A    between atoms: O_1  and  C_2
REMARK    2  A    between atoms: C_4  and  C_5
REMARK    3  A    between atoms: C_8  and  O_9
REMARK                            x       y       z     vdW  Elec       q    Type
REMARK                         _______ _______ _______ _____ _____    ______ ____
ROOT
ATOM      1  C   UNL     1       2.345  -0.047  -0.106  0.00  0.00    +0.000 C 
ATOM      2  C   UNL     1       2.880   1.192  -0.838  0.00  0.00    +0.000 C 
ATOM      3  C   UNL     1       3.134   0.675  -2.230  0.00  0.00    +0.000 C 
ATOM      4  C   UNL     1       3.140  -0.666  -2.253  0.00  0.00    +0.000 C 
ATOM      5  C   UNL     1       2.901  -1.246  -0.900  0.00  0.00    +0.000 C 
ENDROOT
BRANCH   1   6
ATOM      6  O   UNL     1       0.903  -0.071  -0.143  0.00  0.00    +0.000 OA
ATOM      7  H   UNL     1       0.592   0.732   0.308  0.00  0.00    +0.000 HD
ENDBRANCH   1   6
BRANCH   3   8
ATOM      8  C   UNL     1       3.350   1.505  -3.384  0.00  0.00    +0.000 C 
ATOM      9  C   UNL     1       3.353   2.844  -3.385  0.00  0.00    +0.000 C 
ENDBRANCH   3   8
BRANCH   5  10
ATOM     10  O   UNL     1       1.957  -2.298  -0.993  0.00  0.00    +0.000 OA
ATOM     11  H   UNL     1       1.089  -1.846  -0.942  0.00  0.00    +0.000 HD
ENDBRANCH   5  10
TORSDOF 3
