REMARK  Name = ligand_911346
REMARK  2 active torsions:
REMARK  status: ('A' for Active; 'I' for Inactive)
REMARK    1  A    between atoms: C_1  and  C_2
REMARK    2  A    between atoms: C_6  and  N_7
REMARK                            x       y       z     vdW  Elec       q    Type
REMARK                         _______ _______ _______ _____ _____    ______ ____
ROOT
ATOM      1  C   UNL     1       0.939   0.180   0.158  0.00  0.00    +0.000 C 
ATOM      2  C   UNL     1       2.431   0.160   0.119  0.00  0.00    +0.000 C 
ATOM      3  C   UNL     1       3.170   0.398  -1.199  0.00  0.00    +0.000 C 
ATOM      4  C   UNL     1       4.433   1.161  -1.237  0.00  0.00    +0.000 C 
ATOM      5  C   UNL     1       5.913   0.830  -1.255  0.00  0.00    +0.000 C 
ATOM      6  C   UNL     1       4.972  -0.281  -1.451  0.00  0.00    +0.000 C 
ATOM      7  C   UNL     1       4.476  -1.175  -0.338  0.00  0.00    +0.000 C 
ATOM      8  N   UNL     1       3.079  -0.895  -0.627  0.00  0.00    +0.000 NA
ENDROOT
BRANCH   6   9
ATOM      9  N   UNL     1       5.026  -0.891  -2.825  0.00  0.00    +0.000 NA
ATOM     10  H   UNL     1       5.032  -0.160  -3.533  0.00  0.00    +0.000 HD
ATOM     11  H   UNL     1       4.148  -1.398  -2.968  0.00  0.00    +0.000 HD
ENDBRANCH   6   9
TORSDOF 1
