REMARK  Name = ligand_9113908
REMARK  4 active torsions:
REMARK  status: ('A' for Active; 'I' for Inactive)
REMARK    1  A    between atoms: O_1  and  C_2
REMARK    2  A    between atoms: C_4  and  C_5
REMARK    3  A    between atoms: C_5  and  C_6
REMARK    4  A    between atoms: C_8  and  O_9
REMARK                            x       y       z     vdW  Elec       q    Type
REMARK                         _______ _______ _______ _____ _____    ______ ____
ROOT
ATOM      1  C   UNL     1       2.278  -0.037   0.018  0.00  0.00    +0.000 C 
ATOM      2  C   UNL     1       3.014  -1.156   0.781  0.00  0.00    +0.000 C 
ATOM      3  C   UNL     1       4.091  -0.119   1.195  0.00  0.00    +0.000 C 
ATOM      4  C   UNL     1       3.037   0.988   0.918  0.00  0.00    +0.000 C 
ENDROOT
BRANCH   1   5
ATOM      5  O   UNL     1       0.843  -0.030   0.157  0.00  0.00    +0.000 OA
ATOM      6  H   UNL     1       0.533  -0.730  -0.445  0.00  0.00    +0.000 HD
ENDBRANCH   1   5
BRANCH   4   7
ATOM      7  O   UNL     1       2.309   1.454   2.077  0.00  0.00    +0.000 OA
ATOM      8  H   UNL     1       1.444   1.002   2.004  0.00  0.00    +0.000 HD
ENDBRANCH   4   7
BRANCH   3   9
ATOM      9  C   UNL     1       5.351  -0.034   0.332  0.00  0.00    +0.000 C 
BRANCH   9  10
ATOM     10  C   UNL     1       6.109  -1.291   0.404  0.00  0.00    +0.000 C 
ATOM     11  C   UNL     1       6.695  -2.336   0.455  0.00  0.00    +0.000 C 
ENDBRANCH   9  10
ENDBRANCH   3   9
TORSDOF 4
