REMARK  Name = ligand_9113937
REMARK  0 active torsions:
REMARK  status: ('A' for Active; 'I' for Inactive)
REMARK                            x       y       z     vdW  Elec       q    Type
REMARK                         _______ _______ _______ _____ _____    ______ ____
ROOT
ATOM      1  O   UNL     1       6.235  -0.619  -2.191  0.00  0.00    +0.000 OA
ATOM      2  C   UNL     1       5.108  -0.612  -1.692  0.00  0.00    +0.000 C 
ATOM      3  C   UNL     1       3.999  -1.578  -2.130  0.00  0.00    +0.000 C 
ATOM      4  C   UNL     1       3.976  -2.895  -1.317  0.00  0.00    +0.000 C 
ATOM      5  C   UNL     1       3.518  -2.604   0.096  0.00  0.00    +0.000 C 
ATOM      6  C   UNL     1       4.447  -2.327   1.033  0.00  0.00    +0.000 C 
ATOM      7  C   UNL     1       4.479  -0.910   1.589  0.00  0.00    +0.000 C 
ATOM      8  C   UNL     1       5.343  -0.135   0.601  0.00  0.00    +0.000 C 
ATOM      9  C   UNL     1       4.764   0.299  -0.539  0.00  0.00    +0.000 C 
ENDROOT
TORSDOF 0
