REMARK  Name = ligand_911343
REMARK  1 active torsions:
REMARK  status: ('A' for Active; 'I' for Inactive)
REMARK    1  A    between atoms: C_1  and  C_2
REMARK                            x       y       z     vdW  Elec       q    Type
REMARK                         _______ _______ _______ _____ _____    ______ ____
ROOT
ATOM      1  C   UNL     1       0.837   0.104   0.145  0.00  0.00    +0.000 C 
ATOM      2  C   UNL     1       2.326   0.154   0.135  0.00  0.00    +0.000 C 
ATOM      3  C   UNL     1       3.085   0.522  -1.150  0.00  0.00    +0.000 C 
ATOM      4  C   UNL     1       4.365   1.264  -1.041  0.00  0.00    +0.000 C 
ATOM      5  C   UNL     1       5.818   1.000  -1.331  0.00  0.00    +0.000 C 
ATOM      6  C   UNL     1       4.931  -0.150  -1.462  0.00  0.00    +0.000 C 
ATOM      7  C   UNL     1       4.350  -1.099  -0.518  0.00  0.00    +0.000 C 
ATOM      8  N   UNL     1       5.022  -1.932   0.171  0.00  0.00    +0.000 NA
ATOM      9  N   UNL     1       3.034  -0.815  -0.665  0.00  0.00    +0.000 N 
ATOM     10  H   UNL     1       6.020  -1.826  -0.024  0.00  0.00    +0.000 HD
ENDROOT
TORSDOF 0
