REMARK  Name = ligand_9113019
REMARK  0 active torsions:
REMARK  status: ('A' for Active; 'I' for Inactive)
REMARK                            x       y       z     vdW  Elec       q    Type
REMARK                         _______ _______ _______ _____ _____    ______ ____
ROOT
ATOM      1  O   UNL     1       2.525   0.248   1.643  0.00  0.00    +0.000 OA
ATOM      2  C   UNL     1       2.809  -0.205   0.553  0.00  0.00    +0.000 C 
ATOM      3  C   UNL     1       2.968  -1.646   0.226  0.00  0.00    +0.000 C 
ATOM      4  C   UNL     1       3.175  -1.715  -1.101  0.00  0.00    +0.000 C 
ATOM      5  C   UNL     1       3.154  -0.399  -1.646  0.00  0.00    +0.000 C 
ATOM      6  C   UNL     1       2.988   0.518  -0.710  0.00  0.00    +0.000 C 
ATOM      7  O   UNL     1       2.721   1.804  -1.102  0.00  0.00    +0.000 OA
ATOM      8  C   UNL     1       2.985   1.707  -2.530  0.00  0.00    +0.000 C 
ATOM      9  C   UNL     1       2.957   0.223  -2.955  0.00  0.00    +0.000 C 
ENDROOT
TORSDOF 0
