REMARK  Name = ligand_9113695
REMARK  2 active torsions:
REMARK  status: ('A' for Active; 'I' for Inactive)
REMARK    1  A    between atoms: O_1  and  C_2
REMARK    2  A    between atoms: C_2  and  C_8
REMARK                            x       y       z     vdW  Elec       q    Type
REMARK                         _______ _______ _______ _____ _____    ______ ____
ROOT
ATOM      1  C   UNL     1       2.461  -0.087  -0.026  0.00  0.00    +0.000 C 
ATOM      2  C   UNL     1       2.839  -1.338   0.716  0.00  0.00    +0.000 C 
ATOM      3  C   UNL     1       3.308  -1.330   1.978  0.00  0.00    +0.000 C 
ATOM      4  C   UNL     1       3.483  -0.066   2.775  0.00  0.00    +0.000 C 
ATOM      5  C   UNL     1       3.293   1.187   1.964  0.00  0.00    +0.000 C 
ATOM      6  C   UNL     1       2.822   1.176   0.706  0.00  0.00    +0.000 C 
ENDROOT
BRANCH   1   7
ATOM      7  O   UNL     1       1.060  -0.098  -0.227  0.00  0.00    +0.000 OA
ATOM      8  H   UNL     1       0.674  -0.091   0.668  0.00  0.00    +0.000 HD
ENDBRANCH   1   7
BRANCH   1   9
ATOM      9  C   UNL     1       3.161  -0.086  -1.375  0.00  0.00    +0.000 C 
ATOM     10  C   UNL     1       3.761  -0.085  -2.533  0.00  0.00    +0.000 C 
ENDBRANCH   1   9
TORSDOF 2
