REMARK  Name = ligand_9113759
REMARK  2 active torsions:
REMARK  status: ('A' for Active; 'I' for Inactive)
REMARK    1  A    between atoms: O_1  and  C_2
REMARK    2  A    between atoms: C_7  and  C_8
REMARK                            x       y       z     vdW  Elec       q    Type
REMARK                         _______ _______ _______ _____ _____    ______ ____
ROOT
ATOM      1  C   UNL     1       2.260   0.118   0.043  0.00  0.00    +0.000 C 
ATOM      2  C   UNL     1       2.662   1.442  -0.607  0.00  0.00    +0.000 C 
ATOM      3  C   UNL     1       3.593   1.410  -1.817  0.00  0.00    +0.000 C 
ATOM      4  C   UNL     1       3.981   0.059  -2.418  0.00  0.00    +0.000 C 
ATOM      5  C   UNL     1       3.522  -1.166  -1.705  0.00  0.00    +0.000 C 
ATOM      6  C   UNL     1       2.751  -1.145  -0.613  0.00  0.00    +0.000 C 
ENDROOT
BRANCH   1   7
ATOM      7  O   UNL     1       0.828   0.066   0.089  0.00  0.00    +0.000 OA
ATOM      8  H   UNL     1       0.532   0.821   0.624  0.00  0.00    +0.000 HD
ENDBRANCH   1   7
BRANCH   6   9
ATOM      9  C   UNL     1       2.318  -2.455   0.026  0.00  0.00    +0.000 C 
ATOM     10  C   UNL     1       1.947  -3.578   0.574  0.00  0.00    +0.000 C 
ENDBRANCH   6   9
TORSDOF 2
