REMARK  Name = ligand_9113470
REMARK  2 active torsions:
REMARK  status: ('A' for Active; 'I' for Inactive)
REMARK    1  A    between atoms: O_1  and  C_2
REMARK    2  A    between atoms: C_4  and  C_8
REMARK                            x       y       z     vdW  Elec       q    Type
REMARK                         _______ _______ _______ _____ _____    ______ ____
ROOT
ATOM      1  C   UNL     1       2.331   0.026  -0.067  0.00  0.00    +0.000 C 
ATOM      2  C   UNL     1       2.906  -1.193  -0.716  0.00  0.00    +0.000 C 
ATOM      3  C   UNL     1       3.894  -0.881  -1.574  0.00  0.00    +0.000 C 
ATOM      4  C   UNL     1       4.104   0.612  -1.625  0.00  0.00    +0.000 C 
ATOM      5  C   UNL     1       2.950   1.171  -0.826  0.00  0.00    +0.000 C 
ATOM      6  C   UNL     1       2.479   2.421  -0.924  0.00  0.00    +0.000 C 
ENDROOT
BRANCH   1   7
ATOM      7  O   UNL     1       0.926   0.037  -0.211  0.00  0.00    +0.000 OA
ATOM      8  H   UNL     1       0.590  -0.724   0.290  0.00  0.00    +0.000 HD
ENDBRANCH   1   7
BRANCH   3   9
ATOM      9  C   UNL     1       4.636  -1.836  -2.353  0.00  0.00    +0.000 C 
ATOM     10  C   UNL     1       5.629  -1.536  -3.196  0.00  0.00    +0.000 C 
ENDBRANCH   3   9
TORSDOF 2
