REMARK  Name = ligand_9113816
REMARK  0 active torsions:
REMARK  status: ('A' for Active; 'I' for Inactive)
REMARK                            x       y       z     vdW  Elec       q    Type
REMARK                         _______ _______ _______ _____ _____    ______ ____
ROOT
ATOM      1  O   UNL     1       1.211  -0.172   0.777  0.00  0.00    +0.000 OA
ATOM      2  C   UNL     1       2.262  -0.150   0.137  0.00  0.00    +0.000 C 
ATOM      3  C   UNL     1       3.173  -1.352   0.076  0.00  0.00    +0.000 C 
ATOM      4  C   UNL     1       3.670  -1.722  -1.318  0.00  0.00    +0.000 C 
ATOM      5  C   UNL     1       2.661  -1.409  -2.423  0.00  0.00    +0.000 C 
ATOM      6  C   UNL     1       2.819  -0.007  -3.010  0.00  0.00    +0.000 C 
ATOM      7  C   UNL     1       2.785   1.149  -2.056  0.00  0.00    +0.000 C 
ATOM      8  O   UNL     1       3.927   1.169  -1.177  0.00  0.00    +0.000 OA
ATOM      9  C   UNL     1       2.642   1.098  -0.551  0.00  0.00    +0.000 C 
ENDROOT
TORSDOF 0
