REMARK  Name = ligand_911470
REMARK  2 active torsions:
REMARK  status: ('A' for Active; 'I' for Inactive)
REMARK    1  A    between atoms: C_1  and  C_2
REMARK    2  A    between atoms: C_5  and  N_6
REMARK                            x       y       z     vdW  Elec       q    Type
REMARK                         _______ _______ _______ _____ _____    ______ ____
ROOT
ATOM      1  C   UNL     1       0.842  -0.084  -0.002  0.00  0.00    +0.000 C 
ATOM      2  C   UNL     1       2.364  -0.122  -0.038  0.00  0.00    +0.000 C 
ATOM      3  C   UNL     1       3.259   0.928   0.810  0.00  0.00    +0.000 C 
ATOM      4  C   UNL     1       2.920  -0.092   2.008  0.00  0.00    +0.000 C 
ATOM      5  C   UNL     1       3.298  -1.074   0.836  0.00  0.00    +0.000 C 
ATOM      6  C   UNL     1       4.780  -0.891   0.485  0.00  0.00    +0.000 C 
ATOM      7  N   UNL     1       5.274  -0.092  -0.609  0.00  0.00    +0.000 NA
ATOM      8  C   UNL     1       4.772   0.715   0.471  0.00  0.00    +0.000 C 
ATOM      9  H   UNL     1       4.646  -0.120  -1.411  0.00  0.00    +0.000 HD
ENDROOT
BRANCH   5  10
ATOM     10  N   UNL     1       2.759  -2.397   1.009  0.00  0.00    +0.000 NA
ATOM     11  H   UNL     1       1.783  -2.426   1.300  0.00  0.00    +0.000 HD
ATOM     12  H   UNL     1       3.272  -2.966   1.681  0.00  0.00    +0.000 HD
ENDBRANCH   5  10
TORSDOF 1
