REMARK  Name = ligand_9114171
REMARK  1 active torsions:
REMARK  status: ('A' for Active; 'I' for Inactive)
REMARK    1  A    between atoms: C_5  and  C_7
REMARK                            x       y       z     vdW  Elec       q    Type
REMARK                         _______ _______ _______ _____ _____    ______ ____
ROOT
ATOM      1  O   UNL     1       1.383  -0.210   0.436  0.00  0.00    +0.000 OA
ATOM      2  C   UNL     1       2.555  -0.153   0.088  0.00  0.00    +0.000 C 
ATOM      3  C   UNL     1       3.359   1.122   0.016  0.00  0.00    +0.000 C 
ATOM      4  C   UNL     1       4.637   0.587  -0.490  0.00  0.00    +0.000 C 
ATOM      5  C   UNL     1       4.543  -0.733  -0.634  0.00  0.00    +0.000 C 
ATOM      6  O   UNL     1       3.291  -1.250  -0.285  0.00  0.00    +0.000 OA
ENDROOT
BRANCH   5   7
ATOM      7  C   UNL     1       5.565  -1.644  -1.147  0.00  0.00    +0.000 C 
ATOM      8  C   UNL     1       6.054  -2.758  -0.257  0.00  0.00    +0.000 C 
ATOM      9  C   UNL     1       6.968  -1.618  -0.599  0.00  0.00    +0.000 C 
ENDBRANCH   5   7
TORSDOF 1
