REMARK  Name = ligand_9114815
REMARK  4 active torsions:
REMARK  status: ('A' for Active; 'I' for Inactive)
REMARK    1  A    between atoms: O_1  and  C_2
REMARK    2  A    between atoms: C_3  and  O_4
REMARK    3  A    between atoms: C_5  and  C_6
REMARK    4  A    between atoms: C_6  and  C_8
REMARK                            x       y       z     vdW  Elec       q    Type
REMARK                         _______ _______ _______ _____ _____    ______ ____
ROOT
ATOM      1  C   UNL     1       2.484  -0.114   0.095  0.00  0.00    +0.000 C 
ATOM      2  C   UNL     1       3.161   0.682  -0.989  0.00  0.00    +0.000 C 
ATOM      3  C   UNL     1       3.186  -0.827  -1.033  0.00  0.00    +0.000 C 
ENDROOT
BRANCH   1   4
ATOM      4  O   UNL     1       1.050  -0.128   0.086  0.00  0.00    +0.000 OA
ATOM      5  H   UNL     1       0.681   0.690   0.466  0.00  0.00    +0.000 HD
ENDBRANCH   1   4
BRANCH   2   6
ATOM      6  O   UNL     1       4.396   1.332  -0.637  0.00  0.00    +0.000 OA
ATOM      7  H   UNL     1       4.870   0.895   0.091  0.00  0.00    +0.000 HD
ENDBRANCH   2   6
BRANCH   3   8
ATOM      8  C   UNL     1       2.442  -1.538  -2.101  0.00  0.00    +0.000 C 
ATOM      9  O   UNL     1       1.634  -0.991  -2.839  0.00  0.00    +0.000 OA
BRANCH   8  10
ATOM     10  C   UNL     1       2.766  -2.937  -2.289  0.00  0.00    +0.000 C 
ATOM     11  C   UNL     1       3.048  -4.090  -2.465  0.00  0.00    +0.000 C 
ENDBRANCH   8  10
ENDBRANCH   3   8
TORSDOF 4
