REMARK  Name = ligand_9114728
REMARK  3 active torsions:
REMARK  status: ('A' for Active; 'I' for Inactive)
REMARK    1  A    between atoms: O_1  and  C_2
REMARK    2  A    between atoms: C_4  and  C_5
REMARK    3  A    between atoms: C_8  and  O_9
REMARK                            x       y       z     vdW  Elec       q    Type
REMARK                         _______ _______ _______ _____ _____    ______ ____
ROOT
ATOM      1  C   UNL     1       2.408  -1.598  -2.124  0.00  0.00    +0.000 C 
ATOM      2  O   UNL     1       1.592  -0.844  -3.082  0.00  0.00    +0.000 OA
ATOM      3  C   UNL     1       0.623  -1.927  -3.093  0.00  0.00    +0.000 C 
ATOM      4  C   UNL     1       1.163  -2.448  -1.753  0.00  0.00    +0.000 C 
ENDROOT
BRANCH   1   7
ATOM      5  C   UNL     1       4.562  -0.467  -1.026  0.00  0.00    +0.000 C 
ATOM      6  C   UNL     1       3.964  -1.377   0.006  0.00  0.00    +0.000 C 
ATOM      7  C   UNL     1       3.091  -0.774  -1.060  0.00  0.00    +0.000 C 
BRANCH   5   8
ATOM      8  O   UNL     1       5.379  -1.122  -2.005  0.00  0.00    +0.000 OA
ATOM      9  H   UNL     1       6.231  -0.667  -2.116  0.00  0.00    +0.000 HD
ENDBRANCH   5   8
ENDBRANCH   1   7
BRANCH   4  10
ATOM     10  O   UNL     1       0.416  -2.075  -0.568  0.00  0.00    +0.000 OA
ATOM     11  H   UNL     1       0.312  -1.109  -0.641  0.00  0.00    +0.000 HD
ENDBRANCH   4  10
TORSDOF 3
