REMARK  Name = ligand_9114100
REMARK  3 active torsions:
REMARK  status: ('A' for Active; 'I' for Inactive)
REMARK    1  A    between atoms: O_1  and  C_2
REMARK    2  A    between atoms: C_5  and  C_6
REMARK    3  A    between atoms: C_8  and  O_9
REMARK                            x       y       z     vdW  Elec       q    Type
REMARK                         _______ _______ _______ _____ _____    ______ ____
ROOT
ATOM      1  C   UNL     1       2.389   0.004   0.043  0.00  0.00    +0.000 C 
ATOM      2  C   UNL     1       2.980  -1.223  -0.574  0.00  0.00    +0.000 C 
ATOM      3  C   UNL     1       4.030  -0.923  -1.349  0.00  0.00    +0.000 C 
ATOM      4  C   UNL     1       4.289   0.559  -1.386  0.00  0.00    +0.000 C 
ATOM      5  C   UNL     1       2.995   1.144  -0.811  0.00  0.00    +0.000 C 
ENDROOT
BRANCH   1   6
ATOM      6  O   UNL     1       0.975  -0.022  -0.107  0.00  0.00    +0.000 OA
ATOM      7  H   UNL     1       0.640  -0.646   0.560  0.00  0.00    +0.000 HD
ENDBRANCH   1   6
BRANCH   4   8
ATOM      8  C   UNL     1       5.491   0.886  -0.525  0.00  0.00    +0.000 C 
ATOM      9  O   UNL     1       5.434   1.109   0.683  0.00  0.00    +0.000 OA
ENDBRANCH   4   8
BRANCH   5  10
ATOM     10  O   UNL     1       2.122   1.487  -1.906  0.00  0.00    +0.000 OA
ATOM     11  H   UNL     1       1.294   0.993  -1.727  0.00  0.00    +0.000 HD
ENDBRANCH   5  10
TORSDOF 3
