REMARK  Name = ligand_9114673
REMARK  3 active torsions:
REMARK  status: ('A' for Active; 'I' for Inactive)
REMARK    1  A    between atoms: O_1  and  C_2
REMARK    2  A    between atoms: C_4  and  O_5
REMARK    3  A    between atoms: C_6  and  C_8
REMARK                            x       y       z     vdW  Elec       q    Type
REMARK                         _______ _______ _______ _____ _____    ______ ____
ROOT
ATOM      1  C   UNL     1       2.524   0.047   0.077  0.00  0.00    +0.000 A 
ATOM      2  C   UNL     1       3.303   1.183   0.077  0.00  0.00    +0.000 A 
ATOM      3  C   UNL     1       4.635   0.717   0.085  0.00  0.00    +0.000 A 
ATOM      4  C   UNL     1       4.584  -0.656   0.089  0.00  0.00    +0.000 A 
ATOM      5  O   UNL     1       3.289  -1.076   0.084  0.00  0.00    +0.000 OA
ENDROOT
BRANCH   1   6
ATOM      6  O   UNL     1       1.223  -0.180   0.072  0.00  0.00    +0.000 OA
ATOM      7  H   UNL     1       0.784   0.686   0.067  0.00  0.00    +0.000 HD
ENDBRANCH   1   6
BRANCH   3   8
ATOM      8  O   UNL     1       5.766   1.441   0.089  0.00  0.00    +0.000 OA
ATOM      9  H   UNL     1       5.564   2.391   0.086  0.00  0.00    +0.000 HD
ENDBRANCH   3   8
BRANCH   4  10
ATOM     10  C   UNL     1       5.599  -1.643   0.097  0.00  0.00    +0.000 C 
ATOM     11  C   UNL     1       6.485  -2.452   0.104  0.00  0.00    +0.000 C 
ENDBRANCH   4  10
TORSDOF 3
