REMARK  Name = ligand_911546
REMARK  3 active torsions:
REMARK  status: ('A' for Active; 'I' for Inactive)
REMARK    1  A    between atoms: C_1  and  C_2
REMARK    2  A    between atoms: C_5  and  N_6
REMARK    3  A    between atoms: C_8  and  C_9
REMARK                            x       y       z     vdW  Elec       q    Type
REMARK                         _______ _______ _______ _____ _____    ______ ____
ROOT
ATOM      1  C   UNL     1       1.180   0.231   0.074  0.00  0.00    +0.000 C 
ATOM      2  C   UNL     1       2.643  -0.196   0.008  0.00  0.00    +0.000 C 
ATOM      3  C   UNL     1       3.474   0.741  -0.869  0.00  0.00    +0.000 C 
ATOM      4  C   UNL     1       3.046   1.135  -2.255  0.00  0.00    +0.000 C 
ATOM      5  C   UNL     1       3.958  -0.049  -2.078  0.00  0.00    +0.000 C 
ATOM      6  C   UNL     1       3.459  -1.413  -1.812  0.00  0.00    +0.000 C 
ATOM      7  C   UNL     1       2.793  -1.551  -0.651  0.00  0.00    +0.000 C 
ATOM      8  C   UNL     1       2.347  -2.808   0.001  0.00  0.00    +0.000 C 
ENDROOT
BRANCH   5   9
ATOM      9  N   UNL     1       5.331   0.043  -2.542  0.00  0.00    +0.000 NA
ATOM     10  H   UNL     1       5.497   0.938  -2.998  0.00  0.00    +0.000 HD
ATOM     11  H   UNL     1       5.498  -0.656  -3.266  0.00  0.00    +0.000 HD
ENDBRANCH   5   9
TORSDOF 1
