REMARK  Name = ligand_9115344
REMARK  0 active torsions:
REMARK  status: ('A' for Active; 'I' for Inactive)
REMARK                            x       y       z     vdW  Elec       q    Type
REMARK                         _______ _______ _______ _____ _____    ______ ____
ROOT
ATOM      1  O   UNL     1       1.265   0.685  -0.646  0.00  0.00    +0.000 OA
ATOM      2  C   UNL     1       2.371   0.362  -0.258  0.00  0.00    +0.000 C 
ATOM      3  O   UNL     1       2.962  -0.858  -0.450  0.00  0.00    +0.000 OA
ATOM      4  C   UNL     1       4.085  -0.913   0.395  0.00  0.00    +0.000 C 
ATOM      5  C   UNL     1       5.386  -1.334  -0.205  0.00  0.00    +0.000 C 
ATOM      6  C   UNL     1       6.362  -0.473   0.152  0.00  0.00    +0.000 C 
ATOM      7  C   UNL     1       5.802   0.735   0.873  0.00  0.00    +0.000 C 
ATOM      8  C   UNL     1       4.341   0.501   0.727  0.00  0.00    +0.000 C 
ATOM      9  C   UNL     1       3.318   1.280   0.401  0.00  0.00    +0.000 C 
ENDROOT
TORSDOF 0
