REMARK  Name = ligand_9116170
REMARK  2 active torsions:
REMARK  status: ('A' for Active; 'I' for Inactive)
REMARK    1  A    between atoms: O_1  and  C_2
REMARK    2  A    between atoms: C_2  and  C_3
REMARK                            x       y       z     vdW  Elec       q    Type
REMARK                         _______ _______ _______ _____ _____    ______ ____
ROOT
ATOM      1  C   UNL     1       3.136  -1.107   0.417  0.00  0.00    +0.000 C 
ATOM      2  C   UNL     1       4.286  -0.822  -0.572  0.00  0.00    +0.000 C 
ATOM      3  C   UNL     1       3.759  -1.243  -1.919  0.00  0.00    +0.000 C 
ATOM      4  C   UNL     1       3.911  -2.657  -2.409  0.00  0.00    +0.000 C 
ATOM      5  C   UNL     1       2.664  -2.264  -1.675  0.00  0.00    +0.000 C 
ATOM      6  C   UNL     1       2.495  -2.335  -0.200  0.00  0.00    +0.000 C 
ATOM      7  O   UNL     1       1.846  -3.196   0.366  0.00  0.00    +0.000 OA
ENDROOT
BRANCH   1   8
ATOM      8  C   UNL     1       2.098   0.007   0.439  0.00  0.00    +0.000 C 
BRANCH   8   9
ATOM      9  O   UNL     1       2.696   1.231   0.855  0.00  0.00    +0.000 OA
ATOM     10  H   UNL     1       2.011   1.920   0.795  0.00  0.00    +0.000 HD
ENDBRANCH   8   9
ENDBRANCH   1   8
TORSDOF 2
