REMARK  Name = ligand_9116942
REMARK  3 active torsions:
REMARK  status: ('A' for Active; 'I' for Inactive)
REMARK    1  A    between atoms: C_2  and  C_3
REMARK    2  A    between atoms: C_4  and  C_5
REMARK    3  A    between atoms: C_7  and  C_8
REMARK                            x       y       z     vdW  Elec       q    Type
REMARK                         _______ _______ _______ _____ _____    ______ ____
ROOT
ATOM      1  C   UNL     1       3.082  -1.250   0.356  0.00  0.00    +0.000 C 
ATOM      2  C   UNL     1       4.098  -1.720  -0.666  0.00  0.00    +0.000 C 
ATOM      3  C   UNL     1       3.020  -2.660  -0.183  0.00  0.00    +0.000 C 
ENDROOT
BRANCH   1   5
ATOM      4  O   UNL     1       2.026   0.228  -1.167  0.00  0.00    +0.000 OA
ATOM      5  C   UNL     1       2.122  -0.189  -0.019  0.00  0.00    +0.000 C 
ENDBRANCH   1   5
BRANCH   2   6
ATOM      6  C   UNL     1       5.504  -1.893  -0.241  0.00  0.00    +0.000 C 
ATOM      7  O   UNL     1       5.793  -2.303   0.877  0.00  0.00    +0.000 OA
ENDBRANCH   2   6
BRANCH   3   8
ATOM      8  C   UNL     1       1.969  -3.051  -1.080  0.00  0.00    +0.000 C 
ATOM      9  C   UNL     1       1.087  -3.397  -1.816  0.00  0.00    +0.000 C 
ENDBRANCH   3   8
TORSDOF 3
