REMARK  Name = ligand_9117505
REMARK  2 active torsions:
REMARK  status: ('A' for Active; 'I' for Inactive)
REMARK    1  A    between atoms: O_1  and  C_2
REMARK    2  A    between atoms: C_2  and  C_3
REMARK                            x       y       z     vdW  Elec       q    Type
REMARK                         _______ _______ _______ _____ _____    ______ ____
ROOT
ATOM      1  C   UNL     1       2.966  -0.493  -1.337  0.00  0.00    +0.000 C 
ATOM      2  O   UNL     1       1.900  -0.221  -2.308  0.00  0.00    +0.000 OA
ATOM      3  C   UNL     1       1.172  -1.466  -2.330  0.00  0.00    +0.000 C 
ATOM      4  O   UNL     1       1.322  -2.009  -1.005  0.00  0.00    +0.000 OA
ATOM      5  C   UNL     1       2.771  -1.987  -1.035  0.00  0.00    +0.000 C 
ATOM      6  C   UNL     1       3.003  -2.789  -2.288  0.00  0.00    +0.000 C 
ATOM      7  C   UNL     1       1.999  -2.441  -3.109  0.00  0.00    +0.000 C 
ENDROOT
BRANCH   1   8
ATOM      8  C   UNL     1       2.760   0.394  -0.115  0.00  0.00    +0.000 C 
BRANCH   8   9
ATOM      9  O   UNL     1       3.846   0.240   0.794  0.00  0.00    +0.000 OA
ATOM     10  H   UNL     1       3.825   1.011   1.389  0.00  0.00    +0.000 HD
ENDBRANCH   8   9
ENDBRANCH   1   8
TORSDOF 2
