REMARK  Name = ligand_9117357
REMARK  1 active torsions:
REMARK  status: ('A' for Active; 'I' for Inactive)
REMARK    1  A    between atoms: C_2  and  C_3
REMARK                            x       y       z     vdW  Elec       q    Type
REMARK                         _______ _______ _______ _____ _____    ______ ____
ROOT
ATOM      1  C   UNL     1       3.087   0.959  -0.822  0.00  0.00    +0.000 C 
ATOM      2  C   UNL     1       4.193   0.544  -1.445  0.00  0.00    +0.000 C 
ATOM      3  O   UNL     1       5.049   1.322  -2.163  0.00  0.00    +0.000 OA
ATOM      4  C   UNL     1       4.782   2.713  -2.184  0.00  0.00    +0.000 C 
ATOM      5  C   UNL     1       3.498   3.281  -1.592  0.00  0.00    +0.000 C 
ATOM      6  O   UNL     1       3.223   4.478  -1.718  0.00  0.00    +0.000 OA
ATOM      7  C   UNL     1       2.594   2.361  -0.810  0.00  0.00    +0.000 C 
ENDROOT
BRANCH   1   9
ATOM      8  O   UNL     1       1.254   0.242   0.501  0.00  0.00    +0.000 OA
ATOM      9  C   UNL     1       2.283  -0.051  -0.098  0.00  0.00    +0.000 C 
ENDBRANCH   1   9
TORSDOF 1
