REMARK  Name = ligand_9117742
REMARK  2 active torsions:
REMARK  status: ('A' for Active; 'I' for Inactive)
REMARK    1  A    between atoms: C_2  and  C_3
REMARK    2  A    between atoms: C_3  and  C_4
REMARK                            x       y       z     vdW  Elec       q    Type
REMARK                         _______ _______ _______ _____ _____    ______ ____
ROOT
ATOM      1  C   UNL     1       4.237   0.176  -0.793  0.00  0.00    +0.000 C 
ATOM      2  C   UNL     1       4.680  -1.291  -0.335  0.00  0.00    +0.000 C 
ATOM      3  C   UNL     1       6.025  -0.487  -0.111  0.00  0.00    +0.000 C 
ATOM      4  C   UNL     1       5.657   0.118  -1.538  0.00  0.00    +0.000 C 
ATOM      5  C   UNL     1       5.674   0.586   0.865  0.00  0.00    +0.000 C 
ATOM      6  C   UNL     1       4.492   1.033   0.418  0.00  0.00    +0.000 C 
ENDROOT
BRANCH   1   7
ATOM      7  C   UNL     1       2.898   0.293  -1.473  0.00  0.00    +0.000 C 
BRANCH   7   9
ATOM      8  O   UNL     1       1.558   2.295  -1.501  0.00  0.00    +0.000 OA
ATOM      9  C   UNL     1       2.541   1.685  -1.914  0.00  0.00    +0.000 C 
ENDBRANCH   7   9
ENDBRANCH   1   7
TORSDOF 2
