REMARK  Name = ligand_911761
REMARK  2 active torsions:
REMARK  status: ('A' for Active; 'I' for Inactive)
REMARK    1  A    between atoms: C_1  and  C_2
REMARK    2  A    between atoms: C_7  and  C_8
REMARK                            x       y       z     vdW  Elec       q    Type
REMARK                         _______ _______ _______ _____ _____    ______ ____
ROOT
ATOM      1  C   UNL     1       0.913  -0.101  -0.465  0.00  0.00    +0.000 C 
ATOM      2  C   UNL     1       2.218   0.075   0.217  0.00  0.00    +0.000 C 
ATOM      3  C   UNL     1       3.513  -0.566  -0.185  0.00  0.00    +0.000 C 
ATOM      4  C   UNL     1       3.778  -1.055  -1.549  0.00  0.00    +0.000 C 
ATOM      5  C   UNL     1       3.877  -0.081  -2.466  0.00  0.00    +0.000 C 
ATOM      6  C   UNL     1       3.621   1.251  -1.810  0.00  0.00    +0.000 C 
ATOM      7  C   UNL     1       3.348   0.950  -0.338  0.00  0.00    +0.000 C 
ENDROOT
BRANCH   7   8
ATOM      8  C   UNL     1       3.852   1.911   0.595  0.00  0.00    +0.000 C 
ATOM      9  N   UNL     1       4.199   2.725   1.350  0.00  0.00    +0.000 NA
ENDBRANCH   7   8
TORSDOF 1
