REMARK  Name = ligand_9117277
REMARK  2 active torsions:
REMARK  status: ('A' for Active; 'I' for Inactive)
REMARK    1  A    between atoms: O_1  and  C_2
REMARK    2  A    between atoms: C_2  and  C_3
REMARK                            x       y       z     vdW  Elec       q    Type
REMARK                         _______ _______ _______ _____ _____    ______ ____
ROOT
ATOM      1  C   UNL     1       2.995  -0.111  -1.409  0.00  0.00    +0.000 A 
ATOM      2  C   UNL     1       3.334   0.928  -2.186  0.00  0.00    +0.000 A 
ATOM      3  O   UNL     1       3.775   0.838  -3.485  0.00  0.00    +0.000 OA
ATOM      4  C   UNL     1       3.869  -0.415  -4.040  0.00  0.00    +0.000 A 
ATOM      5  C   UNL     1       3.573  -1.550  -3.402  0.00  0.00    +0.000 A 
ATOM      6  C   UNL     1       3.112  -1.466  -2.002  0.00  0.00    +0.000 A 
ATOM      7  O   UNL     1       2.838  -2.481  -1.372  0.00  0.00    +0.000 OA
ENDROOT
BRANCH   1   8
ATOM      8  C   UNL     1       2.503  -0.045  -0.001  0.00  0.00    +0.000 C 
BRANCH   8   9
ATOM      9  O   UNL     1       2.423   1.305   0.448  0.00  0.00    +0.000 OA
ATOM     10  H   UNL     1       2.057   1.274   1.348  0.00  0.00    +0.000 HD
ENDBRANCH   8   9
ENDBRANCH   1   8
TORSDOF 2
