REMARK  Name = ligand_9117701
REMARK  4 active torsions:
REMARK  status: ('A' for Active; 'I' for Inactive)
REMARK    1  A    between atoms: O_1  and  C_2
REMARK    2  A    between atoms: C_2  and  C_3
REMARK    3  A    between atoms: C_3  and  O_4
REMARK    4  A    between atoms: C_6  and  O_7
REMARK                            x       y       z     vdW  Elec       q    Type
REMARK                         _______ _______ _______ _____ _____    ______ ____
ROOT
ATOM      1  C   UNL     1       3.066  -1.197   0.582  0.00  0.00    +0.000 C 
ATOM      2  C   UNL     1       3.948  -1.865  -0.485  0.00  0.00    +0.000 C 
ATOM      3  C   UNL     1       3.104  -3.018  -1.030  0.00  0.00    +0.000 C 
ATOM      4  C   UNL     1       2.171  -3.313   0.096  0.00  0.00    +0.000 C 
ATOM      5  C   UNL     1       2.151  -2.312   0.985  0.00  0.00    +0.000 C 
ENDROOT
BRANCH   1   6
ATOM      6  O   UNL     1       3.864  -0.830   1.701  0.00  0.00    +0.000 OA
ATOM      7  H   UNL     1       4.285   0.013   1.441  0.00  0.00    +0.000 HD
ENDBRANCH   1   6
BRANCH   3   8
ATOM      8  O   UNL     1       3.902  -4.149  -1.315  0.00  0.00    +0.000 OA
ATOM      9  H   UNL     1       4.309  -4.433  -0.477  0.00  0.00    +0.000 HD
ENDBRANCH   3   8
BRANCH   1  10
ATOM     10  C   UNL     1       2.311   0.041   0.068  0.00  0.00    +0.000 C 
BRANCH  10  11
ATOM     11  O   UNL     1       3.256   1.066  -0.256  0.00  0.00    +0.000 OA
ATOM     12  H   UNL     1       2.745   1.818  -0.607  0.00  0.00    +0.000 HD
ENDBRANCH  10  11
ENDBRANCH   1  10
TORSDOF 4
