REMARK  Name = ligand_9118961
REMARK  5 active torsions:
REMARK  status: ('A' for Active; 'I' for Inactive)
REMARK    1  A    between atoms: O_1  and  C_2
REMARK    2  A    between atoms: C_2  and  C_3
REMARK    3  A    between atoms: C_2  and  C_6
REMARK    4  A    between atoms: C_2  and  C_8
REMARK    5  A    between atoms: C_3  and  C_4
REMARK                            x       y       z     vdW  Elec       q    Type
REMARK                         _______ _______ _______ _____ _____    ______ ____
ROOT
ATOM      1  C   UNL     1       2.500  -0.049   0.039  0.00  0.00    +0.000 C 
ENDROOT
BRANCH   1   2
ATOM      2  O   UNL     1       1.070   0.006   0.075  0.00  0.00    +0.000 OA
ATOM      3  H   UNL     1       0.769  -0.010  -0.848  0.00  0.00    +0.000 HD
ENDBRANCH   1   2
BRANCH   1   4
ATOM      4  C   UNL     1       2.922   1.158  -0.781  0.00  0.00    +0.000 C 
ATOM      5  C   UNL     1       3.588   1.180  -1.945  0.00  0.00    +0.000 C 
ENDBRANCH   1   4
BRANCH   1   6
ATOM      6  C   UNL     1       3.041   0.097   1.449  0.00  0.00    +0.000 C 
ATOM      7  C   UNL     1       2.323   0.235   2.576  0.00  0.00    +0.000 C 
ENDBRANCH   1   6
BRANCH   1   8
ATOM      8  C   UNL     1       2.928  -1.410  -0.589  0.00  0.00    +0.000 C 
BRANCH   8   9
ATOM      9  C   UNL     1       2.499  -2.638   0.178  0.00  0.00    +0.000 C 
ATOM     10  C   UNL     1       3.347  -3.570   0.632  0.00  0.00    +0.000 C 
ENDBRANCH   8   9
ENDBRANCH   1   8
TORSDOF 5
