REMARK  Name = ligand_9118781
REMARK  3 active torsions:
REMARK  status: ('A' for Active; 'I' for Inactive)
REMARK    1  A    between atoms: C_2  and  C_3
REMARK    2  A    between atoms: C_4  and  C_5
REMARK    3  A    between atoms: C_6  and  C_7
REMARK                            x       y       z     vdW  Elec       q    Type
REMARK                         _______ _______ _______ _____ _____    ______ ____
ROOT
ATOM      1  C   UNL     1       4.961  -2.167  -1.666  0.00  0.00    +0.000 C 
ATOM      2  C   UNL     1       5.600  -2.941  -2.324  0.00  0.00    +0.000 C 
ENDROOT
BRANCH   2   3
ATOM      3  C   UNL     1       6.467  -3.787  -3.096  0.00  0.00    +0.000 C 
ATOM      4  C   UNL     1       5.902  -4.682  -4.167  0.00  0.00    +0.000 C 
ATOM      5  C   UNL     1       6.425  -5.280  -2.893  0.00  0.00    +0.000 C 
ENDBRANCH   2   3
BRANCH   1   7
ATOM      6  C   UNL     1       2.953  -1.117  -0.834  0.00  0.00    +0.000 C 
ATOM      7  C   UNL     1       4.288  -1.190  -0.874  0.00  0.00    +0.000 C 
BRANCH   6   9
ATOM      8  O   UNL     1       1.057  -0.010   0.029  0.00  0.00    +0.000 OA
ATOM      9  C   UNL     1       2.280  -0.087  -0.015  0.00  0.00    +0.000 C 
ENDBRANCH   6   9
ENDBRANCH   1   7
TORSDOF 3
