REMARK  Name = ligand_9118713
REMARK  3 active torsions:
REMARK  status: ('A' for Active; 'I' for Inactive)
REMARK    1  A    between atoms: C_2  and  C_3
REMARK    2  A    between atoms: C_4  and  C_5
REMARK    3  A    between atoms: C_5  and  C_6
REMARK                            x       y       z     vdW  Elec       q    Type
REMARK                         _______ _______ _______ _____ _____    ______ ____
ROOT
ATOM      1  C   UNL     1       5.190   2.630   0.214  0.00  0.00    +0.000 C 
ENDROOT
BRANCH   1   2
ATOM      2  C   UNL     1       6.688   2.349   0.186  0.00  0.00    +0.000 C 
ATOM      3  C   UNL     1       7.246   1.140   0.989  0.00  0.00    +0.000 C 
ATOM      4  C   UNL     1       8.439   2.030   1.386  0.00  0.00    +0.000 C 
ATOM      5  C   UNL     1       7.536   3.251   1.126  0.00  0.00    +0.000 C 
ENDBRANCH   1   2
BRANCH   1   7
ATOM      6  C   UNL     1       3.514   0.794   0.382  0.00  0.00    +0.000 C 
ATOM      7  C   UNL     1       4.439   1.449  -0.336  0.00  0.00    +0.000 C 
BRANCH   6   9
ATOM      8  O   UNL     1       1.992  -1.001   0.495  0.00  0.00    +0.000 OA
ATOM      9  C   UNL     1       2.833  -0.396  -0.159  0.00  0.00    +0.000 C 
ENDBRANCH   6   9
ENDBRANCH   1   7
TORSDOF 3
