REMARK  Name = ligand_9120859
REMARK  5 active torsions:
REMARK  status: ('A' for Active; 'I' for Inactive)
REMARK    1  A    between atoms: O_1  and  C_2
REMARK    2  A    between atoms: C_2  and  C_4
REMARK    3  A    between atoms: C_4  and  C_5
REMARK    4  A    between atoms: C_5  and  C_7
REMARK    5  A    between atoms: C_7  and  C_8
REMARK                            x       y       z     vdW  Elec       q    Type
REMARK                         _______ _______ _______ _____ _____    ______ ____
ROOT
ATOM      1  C   UNL     1       3.223  -0.218  -1.155  0.00  0.00    +0.000 C 
ENDROOT
BRANCH   1   2
ATOM      2  C   UNL     1       2.637  -1.546  -1.624  0.00  0.00    +0.000 C 
ATOM      3  O   UNL     1       1.646  -1.617  -2.338  0.00  0.00    +0.000 OA
BRANCH   2   4
ATOM      4  O   UNL     1       3.244  -2.650  -1.138  0.00  0.00    +0.000 OA
ATOM      5  H   UNL     1       4.031  -2.460  -0.591  0.00  0.00    +0.000 HD
ENDBRANCH   2   4
ENDBRANCH   1   2
BRANCH   1   6
ATOM      6  C   UNL     1       4.715  -0.207  -0.896  0.00  0.00    +0.000 C 
ATOM      7  C   UNL     1       5.205   0.120   0.316  0.00  0.00    +0.000 C 
BRANCH   6   8
ATOM      8  C   UNL     1       5.614  -0.476  -2.087  0.00  0.00    +0.000 C 
BRANCH   8   9
ATOM      9  C   UNL     1       6.543  -1.639  -1.866  0.00  0.00    +0.000 C 
ATOM     10  C   UNL     1       6.563  -2.750  -2.615  0.00  0.00    +0.000 C 
ENDBRANCH   8   9
ENDBRANCH   6   8
ENDBRANCH   1   6
TORSDOF 5
