REMARK  Name = ligand_9120272
REMARK  6 active torsions:
REMARK  status: ('A' for Active; 'I' for Inactive)
REMARK    1  A    between atoms: O_1  and  C_2
REMARK    2  A    between atoms: C_2  and  C_3
REMARK    3  A    between atoms: C_3  and  O_4
REMARK    4  A    between atoms: C_3  and  C_5
REMARK    5  A    between atoms: C_5  and  C_7
REMARK    6  A    between atoms: C_7  and  C_8
REMARK                            x       y       z     vdW  Elec       q    Type
REMARK                         _______ _______ _______ _____ _____    ______ ____
ROOT
ATOM      1  C   UNL     1       3.076   1.033  -1.016  0.00  0.00    +0.000 C 
ENDROOT
BRANCH   1   2
ATOM      2  O   UNL     1       2.678   2.370  -0.684  0.00  0.00    +0.000 OA
ATOM      3  H   UNL     1       2.748   2.402   0.291  0.00  0.00    +0.000 HD
ENDBRANCH   1   2
BRANCH   1   4
ATOM      4  C   UNL     1       4.593   0.981  -0.961  0.00  0.00    +0.000 C 
ATOM      5  C   UNL     1       5.304   0.173  -0.150  0.00  0.00    +0.000 C 
BRANCH   4   6
ATOM      6  C   UNL     1       5.317   1.945  -1.880  0.00  0.00    +0.000 C 
BRANCH   6   7
ATOM      7  C   UNL     1       5.573   1.355  -3.238  0.00  0.00    +0.000 C 
ATOM      8  C   UNL     1       5.116   1.875  -4.385  0.00  0.00    +0.000 C 
ENDBRANCH   6   7
ENDBRANCH   4   6
ENDBRANCH   1   4
BRANCH   1   9
ATOM      9  C   UNL     1       2.287   0.082  -0.088  0.00  0.00    +0.000 C 
BRANCH   9  10
ATOM     10  O   UNL     1       2.484   0.451   1.284  0.00  0.00    +0.000 OA
ATOM     11  H   UNL     1       2.033  -0.222   1.823  0.00  0.00    +0.000 HD
ENDBRANCH   9  10
ENDBRANCH   1   9
TORSDOF 6
