REMARK  Name = ligand_9120268
REMARK  6 active torsions:
REMARK  status: ('A' for Active; 'I' for Inactive)
REMARK    1  A    between atoms: O_1  and  C_2
REMARK    2  A    between atoms: C_2  and  C_3
REMARK    3  A    between atoms: C_3  and  O_4
REMARK    4  A    between atoms: C_3  and  C_5
REMARK    5  A    between atoms: C_3  and  C_8
REMARK    6  A    between atoms: C_5  and  C_6
REMARK                            x       y       z     vdW  Elec       q    Type
REMARK                         _______ _______ _______ _____ _____    ______ ____
ROOT
ATOM      1  C   UNL     1       2.882  -0.648   1.164  0.00  0.00    +0.000 C 
ENDROOT
BRANCH   1   2
ATOM      2  O   UNL     1       2.399   0.011   2.345  0.00  0.00    +0.000 OA
ATOM      3  H   UNL     1       1.441   0.135   2.192  0.00  0.00    +0.000 HD
ENDBRANCH   1   2
BRANCH   1   4
ATOM      4  C   UNL     1       4.402  -0.650   1.214  0.00  0.00    +0.000 C 
ATOM      5  C   UNL     1       5.151  -0.168   2.212  0.00  0.00    +0.000 C 
ENDBRANCH   1   4
BRANCH   1   6
ATOM      6  C   UNL     1       2.413   0.173  -0.075  0.00  0.00    +0.000 C 
BRANCH   6   7
ATOM      7  O   UNL     1       0.992   0.325  -0.118  0.00  0.00    +0.000 OA
ATOM      8  H   UNL     1       0.746   0.552  -1.030  0.00  0.00    +0.000 HD
ENDBRANCH   6   7
ENDBRANCH   1   6
BRANCH   1   9
ATOM      9  C   UNL     1       2.353  -2.116   1.155  0.00  0.00    +0.000 C 
BRANCH   9  10
ATOM     10  C   UNL     1       0.833  -2.116   1.187  0.00  0.00    +0.000 C 
ATOM     11  C   UNL     1      -0.470  -2.116   1.214  0.00  0.00    +0.000 C 
ENDBRANCH   9  10
ENDBRANCH   1   9
TORSDOF 6
