REMARK  Name = ligand_9121813
REMARK  0 active torsions:
REMARK  status: ('A' for Active; 'I' for Inactive)
REMARK                            x       y       z     vdW  Elec       q    Type
REMARK                         _______ _______ _______ _____ _____    ______ ____
ROOT
ATOM      1  C   UNL     1       2.122   0.630   0.387  0.00  0.00    +0.000 C 
ATOM      2  C   UNL     1       0.962   1.531  -0.091  0.00  0.00    +0.000 C 
ATOM      3  C   UNL     1      -0.307   0.766  -0.039  0.00  0.00    +0.000 A 
ATOM      4  C   UNL     1      -1.630   1.126  -0.061  0.00  0.00    +0.000 A 
ATOM      5  N   UNL     1      -2.331  -0.048   0.003  0.00  0.00    +0.000 N 
ATOM      6  N   UNL     1      -1.550  -1.145   0.072  0.00  0.00    +0.000 NA
ATOM      7  C   UNL     1      -0.312  -0.644   0.027  0.00  0.00    +0.000 A 
ATOM      8  C   UNL     1       0.948  -1.443   0.083  0.00  0.00    +0.000 C 
ATOM      9  O   UNL     1       2.113  -0.651  -0.274  0.00  0.00    +0.000 OA
ATOM     10  H   UNL     1      -3.338  -0.175   0.007  0.00  0.00    +0.000 HD
ENDROOT
TORSDOF 0
