REMARK  Name = ligand_9121530
REMARK  0 active torsions:
REMARK  status: ('A' for Active; 'I' for Inactive)
REMARK                            x       y       z     vdW  Elec       q    Type
REMARK                         _______ _______ _______ _____ _____    ______ ____
ROOT
ATOM      1  C   UNL     1       1.757   0.755  -0.306  0.00  0.00    +0.000 C 
ATOM      2  C   UNL     1       0.371   1.449  -0.561  0.00  0.00    +0.000 C 
ATOM      3  C   UNL     1      -0.592   0.375  -0.201  0.00  0.00    +0.000 C 
ATOM      4  N   UNL     1      -1.684  -0.057  -0.973  0.00  0.00    +0.000 NA
ATOM      5  C   UNL     1      -1.937   0.513   0.458  0.00  0.00    +0.000 C 
ATOM      6  C   UNL     1      -1.674  -0.152   1.784  0.00  0.00    +0.000 C 
ATOM      7  O   UNL     1      -0.621  -1.146   1.645  0.00  0.00    +0.000 OA
ATOM      8  C   UNL     1       0.128  -0.563   0.625  0.00  0.00    +0.000 C 
ATOM      9  C   UNL     1       1.449  -0.417   0.602  0.00  0.00    +0.000 C 
ATOM     10  H   UNL     1      -1.791  -1.068  -0.954  0.00  0.00    +0.000 HD
ENDROOT
TORSDOF 0
