REMARK  Name = ligand_9121835
REMARK  0 active torsions:
REMARK  status: ('A' for Active; 'I' for Inactive)
REMARK                            x       y       z     vdW  Elec       q    Type
REMARK                         _______ _______ _______ _____ _____    ______ ____
ROOT
ATOM      1  C   UNL     1       2.226  -0.686   0.038  0.00  0.00    +0.000 C 
ATOM      2  C   UNL     1       0.925  -1.529  -0.029  0.00  0.00    +0.000 C 
ATOM      3  C   UNL     1      -0.300  -0.695  -0.002  0.00  0.00    +0.000 A 
ATOM      4  C   UNL     1      -0.272   0.685   0.003  0.00  0.00    +0.000 A 
ATOM      5  O   UNL     1      -1.564   1.133   0.019  0.00  0.00    +0.000 OA
ATOM      6  N   UNL     1      -2.437   0.054   0.024  0.00  0.00    +0.000 NA
ATOM      7  C   UNL     1      -1.661  -1.031   0.009  0.00  0.00    +0.000 A 
ATOM      8  C   UNL     1       0.902   1.472  -0.009  0.00  0.00    +0.000 C 
ATOM      9  C   UNL     1       2.081   0.824   0.004  0.00  0.00    +0.000 C 
ENDROOT
TORSDOF 0
