REMARK  Name = ligand_9121200
REMARK  0 active torsions:
REMARK  status: ('A' for Active; 'I' for Inactive)
REMARK                            x       y       z     vdW  Elec       q    Type
REMARK                         _______ _______ _______ _____ _____    ______ ____
ROOT
ATOM      1  C   UNL     1       2.226  -0.116  -0.416  0.00  0.00    +0.000 C 
ATOM      2  C   UNL     1       1.327   0.658   0.657  0.00  0.00    +0.000 C 
ATOM      3  O   UNL     1       1.635  -0.634   1.459  0.00  0.00    +0.000 OA
ATOM      4  C   UNL     1       1.248  -1.274   0.091  0.00  0.00    +0.000 C 
ATOM      5  C   UNL     1      -0.134  -0.781  -0.242  0.00  0.00    +0.000 A 
ATOM      6  N   UNL     1      -1.310  -1.149  -0.714  0.00  0.00    +0.000 NA
ATOM      7  O   UNL     1      -2.075   0.051  -0.601  0.00  0.00    +0.000 OA
ATOM      8  C   UNL     1      -1.294   1.055  -0.053  0.00  0.00    +0.000 A 
ATOM      9  C   UNL     1      -0.072   0.532   0.158  0.00  0.00    +0.000 A 
ENDROOT
TORSDOF 0
