REMARK  Name = ligand_912154
REMARK  2 active torsions:
REMARK  status: ('A' for Active; 'I' for Inactive)
REMARK    1  A    between atoms: C_1  and  C_2
REMARK    2  A    between atoms: C_5  and  N_6
REMARK                            x       y       z     vdW  Elec       q    Type
REMARK                         _______ _______ _______ _____ _____    ______ ____
ROOT
ATOM      1  C   UNL     1       0.887   0.058   0.081  0.00  0.00    +0.000 C 
ATOM      2  C   UNL     1       2.400   0.077  -0.040  0.00  0.00    +0.000 C 
ATOM      3  C   UNL     1       2.981  -1.184  -0.643  0.00  0.00    +0.000 C 
ATOM      4  C   UNL     1       3.097  -1.001  -2.126  0.00  0.00    +0.000 C 
ATOM      5  C   UNL     1       2.535   0.356  -2.471  0.00  0.00    +0.000 C 
ATOM      6  C   UNL     1       2.997   1.012  -1.137  0.00  0.00    +0.000 C 
ATOM      7  C   UNL     1       4.476   0.572  -1.052  0.00  0.00    +0.000 C 
ATOM      8  N   UNL     1       4.290  -0.897  -1.262  0.00  0.00    +0.000 NA
ENDROOT
BRANCH   5   9
ATOM      9  N   UNL     1       3.109   0.894  -3.692  0.00  0.00    +0.000 NA
ATOM     10  H   UNL     1       4.120   0.771  -3.689  0.00  0.00    +0.000 HD
ATOM     11  H   UNL     1       2.935   1.894  -3.743  0.00  0.00    +0.000 HD
ENDBRANCH   5   9
TORSDOF 1
