REMARK  Name = ligand_9121212
REMARK  0 active torsions:
REMARK  status: ('A' for Active; 'I' for Inactive)
REMARK                            x       y       z     vdW  Elec       q    Type
REMARK                         _______ _______ _______ _____ _____    ______ ____
ROOT
ATOM      1  C   UNL     1      -0.787   1.455  -0.092  0.00  0.00    +0.000 C 
ATOM      2  C   UNL     1      -1.795   0.324   0.115  0.00  0.00    +0.000 C 
ATOM      3  O   UNL     1      -2.067  -0.498  -1.002  0.00  0.00    +0.000 OA
ATOM      4  C   UNL     1      -1.084  -1.037  -0.090  0.00  0.00    +0.000 C 
ATOM      5  C   UNL     1       0.346  -0.614  -0.119  0.00  0.00    +0.000 A 
ATOM      6  C   UNL     1       1.604  -1.064   0.112  0.00  0.00    +0.000 A 
ATOM      7  N   UNL     1       2.442   0.039   0.136  0.00  0.00    +0.000 NA
ATOM      8  N   UNL     1       1.706   1.147  -0.013  0.00  0.00    +0.000 NA
ATOM      9  N   UNL     1       0.463   0.734  -0.251  0.00  0.00    +0.000 N 
ENDROOT
TORSDOF 0
