REMARK  Name = ligand_9121329
REMARK  0 active torsions:
REMARK  status: ('A' for Active; 'I' for Inactive)
REMARK                            x       y       z     vdW  Elec       q    Type
REMARK                         _______ _______ _______ _____ _____    ______ ____
ROOT
ATOM      1  C   UNL     1       1.271   0.108  -0.376  0.00  0.00    +0.000 C 
ATOM      2  C   UNL     1       2.425   0.948  -0.882  0.00  0.00    +0.000 C 
ATOM      3  C   UNL     1       3.283   0.668  -2.052  0.00  0.00    +0.000 C 
ATOM      4  C   UNL     1       3.124   0.977  -3.474  0.00  0.00    +0.000 C 
ATOM      5  N   UNL     1       3.625   0.048  -4.236  0.00  0.00    +0.000 NA
ATOM      6  O   UNL     1       3.996  -1.026  -3.332  0.00  0.00    +0.000 OA
ATOM      7  C   UNL     1       3.125  -0.816  -2.242  0.00  0.00    +0.000 C 
ATOM      8  C   UNL     1       3.294  -1.296  -0.813  0.00  0.00    +0.000 C 
ATOM      9  N   UNL     1       2.622  -0.239   0.036  0.00  0.00    +0.000 NA
ENDROOT
TORSDOF 0
