REMARK  Name = ligand_9122301
REMARK  0 active torsions:
REMARK  status: ('A' for Active; 'I' for Inactive)
REMARK                            x       y       z     vdW  Elec       q    Type
REMARK                         _______ _______ _______ _____ _____    ______ ____
ROOT
ATOM      1  C   UNL     1      -3.040   2.870   0.497  0.00  0.00    +0.000 C 
ATOM      2  C   UNL     1      -3.933   2.558   1.664  0.00  0.00    +0.000 C 
ATOM      3  C   UNL     1      -4.288   1.267   1.673  0.00  0.00    +0.000 C 
ATOM      4  C   UNL     1      -3.682   0.528   0.516  0.00  0.00    +0.000 C 
ATOM      5  C   UNL     1      -3.286   1.671  -0.432  0.00  0.00    +0.000 C 
ATOM      6  O   UNL     1      -2.157   1.345  -1.212  0.00  0.00    +0.000 OA
ATOM      7  C   UNL     1      -2.663   1.384  -2.457  0.00  0.00    +0.000 C 
ATOM      8  N   UNL     1      -3.891   1.715  -2.618  0.00  0.00    +0.000 NA
ATOM      9  O   UNL     1      -4.375   1.958  -1.319  0.00  0.00    +0.000 OA
ENDROOT
TORSDOF 0
