REMARK  Name = ligand_9122723
REMARK  0 active torsions:
REMARK  status: ('A' for Active; 'I' for Inactive)
REMARK                            x       y       z     vdW  Elec       q    Type
REMARK                         _______ _______ _______ _____ _____    ______ ____
ROOT
ATOM      1  C   UNL     1      -0.739   1.901   0.567  0.00  0.00    +0.000 C 
ATOM      2  N   UNL     1       0.417   2.344  -0.271  0.00  0.00    +0.000 NA
ATOM      3  C   UNL     1       1.203   1.309  -0.265  0.00  0.00    +0.000 C 
ATOM      4  N   UNL     1       0.796   0.177   0.381  0.00  0.00    +0.000 N 
ATOM      5  C   UNL     1       1.168  -1.158  -0.089  0.00  0.00    +0.000 C 
ATOM      6  C   UNL     1       0.051  -2.166   0.228  0.00  0.00    +0.000 C 
ATOM      7  O   UNL     1      -1.221  -1.807  -0.340  0.00  0.00    +0.000 OA
ATOM      8  C   UNL     1      -1.457  -0.385  -0.369  0.00  0.00    +0.000 C 
ATOM      9  C   UNL     1      -0.628   0.374   0.682  0.00  0.00    +0.000 C 
ENDROOT
TORSDOF 0
