REMARK  Name = ligand_9122730
REMARK  0 active torsions:
REMARK  status: ('A' for Active; 'I' for Inactive)
REMARK                            x       y       z     vdW  Elec       q    Type
REMARK                         _______ _______ _______ _____ _____    ______ ____
ROOT
ATOM      1  C   UNL     1       1.835  -0.827   0.031  0.00  0.00    +0.000 C 
ATOM      2  C   UNL     1       2.824  -2.009  -0.080  0.00  0.00    +0.000 C 
ATOM      3  C   UNL     1       3.844  -0.962  -0.047  0.00  0.00    +0.000 A 
ATOM      4  C   UNL     1       5.130  -0.564  -0.062  0.00  0.00    +0.000 A 
ATOM      5  O   UNL     1       6.353   0.008  -0.050  0.00  0.00    +0.000 OA
ATOM      6  C   UNL     1       5.939   1.369  -0.068  0.00  0.00    +0.000 C 
ATOM      7  C   UNL     1       4.625   0.812  -0.117  0.00  0.00    +0.000 A 
ATOM      8  N   UNL     1       3.365   1.185  -0.034  0.00  0.00    +0.000 NA
ATOM      9  N   UNL     1       2.971  -0.010   0.306  0.00  0.00    +0.000 N 
ENDROOT
TORSDOF 0
