REMARK  Name = ligand_912313
REMARK  1 active torsions:
REMARK  status: ('A' for Active; 'I' for Inactive)
REMARK    1  A    between atoms: C_1  and  C_2
REMARK                            x       y       z     vdW  Elec       q    Type
REMARK                         _______ _______ _______ _____ _____    ______ ____
ROOT
ATOM      1  C   UNL     1       0.845   0.035  -0.087  0.00  0.00    +0.000 C 
ATOM      2  C   UNL     1       2.316  -0.013   0.149  0.00  0.00    +0.000 C 
ATOM      3  C   UNL     1       3.265   0.686  -0.806  0.00  0.00    +0.000 C 
ATOM      4  C   UNL     1       4.501   1.423  -0.403  0.00  0.00    +0.000 C 
ATOM      5  N   UNL     1       4.934   1.231   0.972  0.00  0.00    +0.000 NA
ATOM      6  C   UNL     1       5.658  -0.025   1.171  0.00  0.00    +0.000 C 
ATOM      7  C   UNL     1       4.867  -1.340   1.023  0.00  0.00    +0.000 C 
ATOM      8  N   UNL     1       4.342  -1.618  -0.316  0.00  0.00    +0.000 NA
ATOM      9  C   UNL     1       3.199  -0.818  -0.770  0.00  0.00    +0.000 C 
ATOM     10  H   UNL     1       4.133   1.287   1.594  0.00  0.00    +0.000 HD
ATOM     11  H   UNL     1       4.102  -2.607  -0.364  0.00  0.00    +0.000 HD
ENDROOT
TORSDOF 0
