REMARK  Name = ligand_9123366
REMARK  0 active torsions:
REMARK  status: ('A' for Active; 'I' for Inactive)
REMARK                            x       y       z     vdW  Elec       q    Type
REMARK                         _______ _______ _______ _____ _____    ______ ____
ROOT
ATOM      1  C   UNL     1      -1.330   1.445   0.051  0.00  0.00    +0.000 C 
ATOM      2  C   UNL     1      -0.948   0.268  -0.907  0.00  0.00    +0.000 C 
ATOM      3  O   UNL     1      -1.144  -1.033  -0.280  0.00  0.00    +0.000 OA
ATOM      4  C   UNL     1      -0.127  -1.244   0.718  0.00  0.00    +0.000 C 
ATOM      5  C   UNL     1       1.193  -1.413  -0.059  0.00  0.00    +0.000 C 
ATOM      6  N   UNL     1       1.569  -0.194  -0.824  0.00  0.00    +0.000 NA
ATOM      7  C   UNL     1       0.519   0.848  -0.774  0.00  0.00    +0.000 C 
ATOM      8  C   UNL     1       0.052   1.120   0.713  0.00  0.00    +0.000 C 
ATOM      9  O   UNL     1      -0.001  -0.075   1.547  0.00  0.00    +0.000 OA
ATOM     10  H   UNL     1       1.840  -0.471  -1.768  0.00  0.00    +0.000 HD
ENDROOT
TORSDOF 0
