REMARK  Name = ligand_9123414
REMARK  0 active torsions:
REMARK  status: ('A' for Active; 'I' for Inactive)
REMARK                            x       y       z     vdW  Elec       q    Type
REMARK                         _______ _______ _______ _____ _____    ______ ____
ROOT
ATOM      1  C   UNL     1       2.446   0.045  -0.317  0.00  0.00    +0.000 C 
ATOM      2  O   UNL     1       1.684  -0.006  -1.544  0.00  0.00    +0.000 OA
ATOM      3  C   UNL     1       0.946   0.160  -0.347  0.00  0.00    +0.000 C 
ATOM      4  C   UNL     1       0.079  -0.944   0.175  0.00  0.00    +0.000 C 
ATOM      5  C   UNL     1      -0.968  -0.097   0.965  0.00  0.00    +0.000 C 
ATOM      6  C   UNL     1      -0.183   1.153   1.386  0.00  0.00    +0.000 C 
ATOM      7  C   UNL     1       0.255   1.458  -0.049  0.00  0.00    +0.000 C 
ATOM      8  C   UNL     1      -1.107   1.477  -0.766  0.00  0.00    +0.000 C 
ATOM      9  N   UNL     1      -1.927   0.513   0.014  0.00  0.00    +0.000 NA
ATOM     10  H   UNL     1      -2.314  -0.196  -0.605  0.00  0.00    +0.000 HD
ENDROOT
TORSDOF 0
