REMARK  Name = ligand_9124359
REMARK  1 active torsions:
REMARK  status: ('A' for Active; 'I' for Inactive)
REMARK    1  A    between atoms: C_4  and  N_5
REMARK                            x       y       z     vdW  Elec       q    Type
REMARK                         _______ _______ _______ _____ _____    ______ ____
ROOT
ATOM      1  N   UNL     1       1.428  -0.505   1.583  0.00  0.00    +0.000 N 
ATOM      2  C   UNL     1       0.579  -0.516   2.661  0.00  0.00    +0.000 A 
ATOM      3  C   UNL     1       1.370  -0.670   3.775  0.00  0.00    +0.000 A 
ATOM      4  C   UNL     1       2.681  -0.729   3.274  0.00  0.00    +0.000 A 
ATOM      5  N   UNL     1       2.722  -0.641   1.942  0.00  0.00    +0.000 NA
ENDROOT
BRANCH   1   9
ATOM      6  C   UNL     1       0.312   0.959  -0.054  0.00  0.00    +0.000 C 
ATOM      7  O   UNL     1      -0.953   0.259  -0.135  0.00  0.00    +0.000 OA
ATOM      8  C   UNL     1      -0.249  -1.005  -0.203  0.00  0.00    +0.000 C 
ATOM      9  C   UNL     1       1.077  -0.348   0.198  0.00  0.00    +0.000 C 
ENDBRANCH   1   9
TORSDOF 1
