REMARK  Name = ligand_9124846
REMARK  1 active torsions:
REMARK  status: ('A' for Active; 'I' for Inactive)
REMARK    1  A    between atoms: C_1  and  C_2
REMARK                            x       y       z     vdW  Elec       q    Type
REMARK                         _______ _______ _______ _____ _____    ______ ____
ROOT
ATOM      1  C   UNL     1       1.073   0.046  -0.194  0.00  0.00    +0.000 C 
ATOM      2  C   UNL     1       2.552  -0.026  -0.189  0.00  0.00    +0.000 C 
ATOM      3  C   UNL     1       3.416   0.830   0.679  0.00  0.00    +0.000 C 
ATOM      4  N   UNL     1       4.557   1.349  -0.118  0.00  0.00    +0.000 NA
ATOM      5  C   UNL     1       4.319   0.879  -1.504  0.00  0.00    +0.000 C 
ATOM      6  C   UNL     1       3.332  -0.312  -1.432  0.00  0.00    +0.000 C 
ATOM      7  C   UNL     1       4.041  -1.622  -1.057  0.00  0.00    +0.000 C 
ATOM      8  O   UNL     1       4.309  -1.535   0.362  0.00  0.00    +0.000 OA
ATOM      9  C   UNL     1       3.296  -0.662   0.942  0.00  0.00    +0.000 C 
ATOM     10  H   UNL     1       5.407   0.899   0.231  0.00  0.00    +0.000 HD
ENDROOT
TORSDOF 0
