REMARK  Name = ligand_9124594
REMARK  0 active torsions:
REMARK  status: ('A' for Active; 'I' for Inactive)
REMARK                            x       y       z     vdW  Elec       q    Type
REMARK                         _______ _______ _______ _____ _____    ______ ____
ROOT
ATOM      1  C   UNL     1       0.991   1.467   0.015  0.00  0.00    +0.000 C 
ATOM      2  O   UNL     1       2.126   0.580  -0.020  0.00  0.00    +0.000 OA
ATOM      3  C   UNL     1       1.961  -0.761  -0.017  0.00  0.00    +0.000 C 
ATOM      4  N   UNL     1       0.856  -1.421  -0.010  0.00  0.00    +0.000 NA
ATOM      5  N   UNL     1      -0.237  -0.646  -0.008  0.00  0.00    +0.000 N 
ATOM      6  C   UNL     1      -1.542  -1.061  -0.013  0.00  0.00    +0.000 A 
ATOM      7  N   UNL     1      -2.383  -0.048  -0.016  0.00  0.00    +0.000 NA
ATOM      8  C   UNL     1      -1.587   1.067  -0.010  0.00  0.00    +0.000 A 
ATOM      9  C   UNL     1      -0.258   0.714  -0.002  0.00  0.00    +0.000 A 
ENDROOT
TORSDOF 0
