REMARK  Name = ligand_9124986
REMARK  1 active torsions:
REMARK  status: ('A' for Active; 'I' for Inactive)
REMARK    1  A    between atoms: C_1  and  C_2
REMARK                            x       y       z     vdW  Elec       q    Type
REMARK                         _______ _______ _______ _____ _____    ______ ____
ROOT
ATOM      1  C   UNL     1       1.535   0.043  -0.364  0.00  0.00    +0.000 C 
ATOM      2  C   UNL     1       2.903  -0.236   0.188  0.00  0.00    +0.000 C 
ATOM      3  C   UNL     1       3.672   0.940   0.742  0.00  0.00    +0.000 C 
ATOM      4  C   UNL     1       4.131   0.253  -0.512  0.00  0.00    +0.000 C 
ATOM      5  C   UNL     1       5.121  -0.855  -0.438  0.00  0.00    +0.000 C 
ATOM      6  O   UNL     1       4.451  -2.001   0.130  0.00  0.00    +0.000 OA
ATOM      7  N   UNL     1       3.171  -1.582   0.585  0.00  0.00    +0.000 N 
ATOM      8  C   UNL     1       2.620  -2.278   1.621  0.00  0.00    +0.000 C 
ATOM      9  O   UNL     1       1.632  -1.954   2.275  0.00  0.00    +0.000 OA
ENDROOT
TORSDOF 0
