REMARK  Name = ligand_9124511
REMARK  0 active torsions:
REMARK  status: ('A' for Active; 'I' for Inactive)
REMARK                            x       y       z     vdW  Elec       q    Type
REMARK                         _______ _______ _______ _____ _____    ______ ____
ROOT
ATOM      1  C   UNL     1       1.450  -0.683   1.668  0.00  0.00    +0.000 C 
ATOM      2  O   UNL     1       2.469  -1.238   0.793  0.00  0.00    +0.000 OA
ATOM      3  C   UNL     1       3.543  -0.385   0.994  0.00  0.00    +0.000 C 
ATOM      4  C   UNL     1       3.448   0.423   2.045  0.00  0.00    +0.000 C 
ATOM      5  C   UNL     1       2.202   0.054   2.760  0.00  0.00    +0.000 C 
ATOM      6  C   UNL     1       2.488  -0.818   3.930  0.00  0.00    +0.000 C 
ATOM      7  N   UNL     1       2.028  -0.340   5.043  0.00  0.00    +0.000 NA
ATOM      8  N   UNL     1       1.384   0.908   4.750  0.00  0.00    +0.000 NA
ATOM      9  C   UNL     1       1.479   1.127   3.474  0.00  0.00    +0.000 C 
ENDROOT
TORSDOF 0
