REMARK  Name = ligand_9125064
REMARK  1 active torsions:
REMARK  status: ('A' for Active; 'I' for Inactive)
REMARK    1  A    between atoms: C_1  and  C_2
REMARK                            x       y       z     vdW  Elec       q    Type
REMARK                         _______ _______ _______ _____ _____    ______ ____
ROOT
ATOM      1  C   UNL     1       1.546   0.063   0.282  0.00  0.00    +0.000 C 
ATOM      2  C   UNL     1       2.950  -0.142  -0.177  0.00  0.00    +0.000 C 
ATOM      3  C   UNL     1       3.672   1.005  -0.835  0.00  0.00    +0.000 C 
ATOM      4  C   UNL     1       4.139   0.499   0.497  0.00  0.00    +0.000 C 
ATOM      5  N   UNL     1       5.320  -0.293   0.583  0.00  0.00    +0.000 N 
ATOM      6  C   UNL     1       5.314  -1.643   0.324  0.00  0.00    +0.000 C 
ATOM      7  O   UNL     1       6.351  -2.300   0.386  0.00  0.00    +0.000 OA
ATOM      8  N   UNL     1       4.067  -2.203   0.135  0.00  0.00    +0.000 N 
ATOM      9  O   UNL     1       3.213  -1.451  -0.737  0.00  0.00    +0.000 OA
ATOM     10  H   UNL     1       6.233   0.133   0.668  0.00  0.00    +0.000 HD
ATOM     11  H   UNL     1       3.596  -2.326   1.024  0.00  0.00    +0.000 HD
ENDROOT
TORSDOF 0
