REMARK  Name = ligand_9125626
REMARK  2 active torsions:
REMARK  status: ('A' for Active; 'I' for Inactive)
REMARK    1  A    between atoms: C_1  and  C_2
REMARK    2  A    between atoms: C_8  and  O_9
REMARK                            x       y       z     vdW  Elec       q    Type
REMARK                         _______ _______ _______ _____ _____    ______ ____
ROOT
ATOM      1  C   UNL     1       1.368  -0.098   0.227  0.00  0.00    +0.000 C 
ATOM      2  C   UNL     1       2.843   0.001  -0.145  0.00  0.00    +0.000 C 
ATOM      3  C   UNL     1       3.459  -1.373  -0.523  0.00  0.00    +0.000 C 
ATOM      4  C   UNL     1       4.624  -1.000   0.395  0.00  0.00    +0.000 C 
ATOM      5  N   UNL     1       3.741   0.001   1.067  0.00  0.00    +0.000 N 
ATOM      6  N   UNL     1       4.344   1.224   1.260  0.00  0.00    +0.000 NA
ATOM      7  C   UNL     1       4.120   1.941   0.210  0.00  0.00    +0.000 C 
ATOM      8  C   UNL     1       3.265   1.294  -0.852  0.00  0.00    +0.000 C 
ENDROOT
BRANCH   8   9
ATOM      9  O   UNL     1       2.181   2.144  -1.201  0.00  0.00    +0.000 OA
ATOM     10  H   UNL     1       1.725   2.399  -0.380  0.00  0.00    +0.000 HD
ENDBRANCH   8   9
TORSDOF 1
