REMARK  Name = ligand_9125622
REMARK  1 active torsions:
REMARK  status: ('A' for Active; 'I' for Inactive)
REMARK    1  A    between atoms: C_1  and  C_2
REMARK                            x       y       z     vdW  Elec       q    Type
REMARK                         _______ _______ _______ _____ _____    ______ ____
ROOT
ATOM      1  C   UNL     1       1.477   0.135   0.523  0.00  0.00    +0.000 C 
ATOM      2  C   UNL     1       2.899   0.008   0.007  0.00  0.00    +0.000 C 
ATOM      3  C   UNL     1       3.464   1.226  -0.773  0.00  0.00    +0.000 C 
ATOM      4  C   UNL     1       4.116   1.702   0.537  0.00  0.00    +0.000 C 
ATOM      5  N   UNL     1       3.899   0.349   1.033  0.00  0.00    +0.000 N 
ATOM      6  C   UNL     1       4.892  -0.608   1.184  0.00  0.00    +0.000 C 
ATOM      7  O   UNL     1       6.022  -0.454   1.613  0.00  0.00    +0.000 OA
ATOM      8  C   UNL     1       4.293  -1.887   0.672  0.00  0.00    +0.000 C 
ATOM      9  C   UNL     1       3.303  -1.410  -0.403  0.00  0.00    +0.000 C 
ENDROOT
TORSDOF 0
