REMARK  Name = ligand_9126871
REMARK  1 active torsions:
REMARK  status: ('A' for Active; 'I' for Inactive)
REMARK    1  A    between atoms: C_1  and  C_2
REMARK                            x       y       z     vdW  Elec       q    Type
REMARK                         _______ _______ _______ _____ _____    ______ ____
ROOT
ATOM      1  C   UNL     1       1.267   0.020   0.354  0.00  0.00    +0.000 C 
ATOM      2  C   UNL     1       2.733  -0.058   0.010  0.00  0.00    +0.000 C 
ATOM      3  O   UNL     1       3.377  -0.871   0.998  0.00  0.00    +0.000 OA
ATOM      4  C   UNL     1       4.021   0.351   0.859  0.00  0.00    +0.000 C 
ATOM      5  C   UNL     1       3.665   1.617   1.483  0.00  0.00    +0.000 C 
ATOM      6  N   UNL     1       3.155   2.505   0.686  0.00  0.00    +0.000 NA
ATOM      7  N   UNL     1       2.905   2.141  -0.637  0.00  0.00    +0.000 N 
ATOM      8  C   UNL     1       4.180   2.020  -1.288  0.00  0.00    +0.000 C 
ATOM      9  C   UNL     1       3.308   0.793  -1.058  0.00  0.00    +0.000 C 
ENDROOT
TORSDOF 0
