REMARK  Name = ligand_912654
REMARK  2 active torsions:
REMARK  status: ('A' for Active; 'I' for Inactive)
REMARK    1  A    between atoms: C_1  and  C_2
REMARK    2  A    between atoms: C_7  and  N_8
REMARK                            x       y       z     vdW  Elec       q    Type
REMARK                         _______ _______ _______ _____ _____    ______ ____
ROOT
ATOM      1  C   UNL     1       0.805   0.119  -0.135  0.00  0.00    +0.000 C 
ATOM      2  C   UNL     1       2.274  -0.003   0.052  0.00  0.00    +0.000 C 
ATOM      3  C   UNL     1       3.291   0.347  -0.995  0.00  0.00    +0.000 C 
ATOM      4  N   UNL     1       3.080   0.483  -2.450  0.00  0.00    +0.000 N 
ATOM      5  C   UNL     1       2.895  -0.784  -2.961  0.00  0.00    +0.000 C 
ATOM      6  N   UNL     1       2.972  -1.104  -4.212  0.00  0.00    +0.000 NA
ATOM      7  C   UNL     1       2.630  -1.826  -1.849  0.00  0.00    +0.000 C 
ATOM      8  C   UNL     1       3.072  -1.103  -0.604  0.00  0.00    +0.000 C 
ATOM      9  H   UNL     1       2.370   1.144  -2.754  0.00  0.00    +0.000 HD
ATOM     10  H   UNL     1       3.245  -0.265  -4.734  0.00  0.00    +0.000 HD
ENDROOT
BRANCH   7  11
ATOM     11  N   UNL     1       3.406  -3.036  -2.095  0.00  0.00    +0.000 NA
ATOM     12  H   UNL     1       4.371  -2.754  -2.263  0.00  0.00    +0.000 HD
ATOM     13  H   UNL     1       3.114  -3.371  -3.020  0.00  0.00    +0.000 HD
ENDBRANCH   7  11
TORSDOF 1
