REMARK  Name = ligand_9126667
REMARK  1 active torsions:
REMARK  status: ('A' for Active; 'I' for Inactive)
REMARK    1  A    between atoms: C_1  and  C_2
REMARK                            x       y       z     vdW  Elec       q    Type
REMARK                         _______ _______ _______ _____ _____    ______ ____
ROOT
ATOM      1  C   UNL     1       1.379   0.296   0.538  0.00  0.00    +0.000 C 
ATOM      2  C   UNL     1       2.834  -0.038   0.254  0.00  0.00    +0.000 C 
ATOM      3  N   UNL     1       3.559   1.085  -0.371  0.00  0.00    +0.000 NA
ATOM      4  C   UNL     1       4.677   0.937   0.577  0.00  0.00    +0.000 C 
ATOM      5  C   UNL     1       3.806   0.030   1.472  0.00  0.00    +0.000 C 
ATOM      6  C   UNL     1       4.288  -1.416   1.704  0.00  0.00    +0.000 C 
ATOM      7  C   UNL     1       3.882  -2.224   0.499  0.00  0.00    +0.000 C 
ATOM      8  O   UNL     1       4.391  -1.763  -0.751  0.00  0.00    +0.000 OA
ATOM      9  C   UNL     1       3.050  -1.373  -0.423  0.00  0.00    +0.000 C 
ATOM     10  H   UNL     1       3.087   1.984  -0.285  0.00  0.00    +0.000 HD
ENDROOT
TORSDOF 0
