REMARK  Name = ligand_9126000
REMARK  1 active torsions:
REMARK  status: ('A' for Active; 'I' for Inactive)
REMARK    1  A    between atoms: C_1  and  C_2
REMARK                            x       y       z     vdW  Elec       q    Type
REMARK                         _______ _______ _______ _____ _____    ______ ____
ROOT
ATOM      1  C   UNL     1       1.158   0.020   0.412  0.00  0.00    +0.000 C 
ATOM      2  C   UNL     1       2.530   0.015   1.139  0.00  0.00    +0.000 C 
ATOM      3  C   UNL     1       3.306   0.038   2.860  0.00  0.00    +0.000 C 
ATOM      4  N   UNL     1       1.986   0.007   3.207  0.00  0.00    +0.000 NA
ATOM      5  C   UNL     1       2.132  -1.367   2.365  0.00  0.00    +0.000 C 
ATOM      6  C   UNL     1       3.332  -1.125   1.082  0.00  0.00    +0.000 C 
ATOM      7  O   UNL     1       4.415   0.028   0.997  0.00  0.00    +0.000 OA
ATOM      8  C   UNL     1       3.310   1.166   1.079  0.00  0.00    +0.000 C 
ATOM      9  C   UNL     1       2.081   1.378   2.362  0.00  0.00    +0.000 C 
ENDROOT
TORSDOF 0
