REMARK  Name = ligand_9126885
REMARK  3 active torsions:
REMARK  status: ('A' for Active; 'I' for Inactive)
REMARK    1  A    between atoms: C_1  and  C_2
REMARK    2  A    between atoms: C_7  and  C_8
REMARK    3  A    between atoms: C_8  and  N_9
REMARK                            x       y       z     vdW  Elec       q    Type
REMARK                         _______ _______ _______ _____ _____    ______ ____
ROOT
ATOM      1  C   UNL     1       1.554   0.278  -0.313  0.00  0.00    +0.000 C 
ATOM      2  C   UNL     1       2.906  -0.202   0.068  0.00  0.00    +0.000 C 
ATOM      3  O   UNL     1       3.727   0.811   0.680  0.00  0.00    +0.000 OA
ATOM      4  C   UNL     1       4.144   0.286  -0.582  0.00  0.00    +0.000 C 
ATOM      5  C   UNL     1       5.132  -0.822  -0.524  0.00  0.00    +0.000 C 
ATOM      6  O   UNL     1       4.380  -2.012  -0.218  0.00  0.00    +0.000 OA
ATOM      7  C   UNL     1       3.188  -1.608   0.517  0.00  0.00    +0.000 C 
ENDROOT
BRANCH   7   8
ATOM      8  C   UNL     1       2.072  -2.624   0.218  0.00  0.00    +0.000 C 
BRANCH   8   9
ATOM      9  N   UNL     1       2.422  -3.976   0.671  0.00  0.00    +0.000 NA
ATOM     10  H   UNL     1       3.335  -4.207   0.274  0.00  0.00    +0.000 HD
ATOM     11  H   UNL     1       1.760  -4.647   0.286  0.00  0.00    +0.000 HD
ENDBRANCH   8   9
ENDBRANCH   7   8
TORSDOF 2
