REMARK  Name = ligand_9127384
REMARK  2 active torsions:
REMARK  status: ('A' for Active; 'I' for Inactive)
REMARK    1  A    between atoms: C_1  and  C_2
REMARK    2  A    between atoms: N_8  and  C_9
REMARK                            x       y       z     vdW  Elec       q    Type
REMARK                         _______ _______ _______ _____ _____    ______ ____
ROOT
ATOM      1  C   UNL     1       0.931   0.069   0.115  0.00  0.00    +0.000 C 
ATOM      2  C   UNL     1       2.450   0.082   0.011  0.00  0.00    +0.000 C 
ATOM      3  C   UNL     1       3.209  -0.904  -0.994  0.00  0.00    +0.000 C 
ATOM      4  C   UNL     1       4.725  -0.702  -0.747  0.00  0.00    +0.000 C 
ATOM      5  C   UNL     1       4.750   0.813  -0.745  0.00  0.00    +0.000 C 
ATOM      6  O   UNL     1       5.725   1.519  -0.573  0.00  0.00    +0.000 OA
ATOM      7  C   UNL     1       3.182   1.099  -0.982  0.00  0.00    +0.000 C 
ATOM      8  N   UNL     1       2.695   0.096  -2.043  0.00  0.00    +0.000 NA
ATOM      9  C   UNL     1       3.461   0.136  -3.279  0.00  0.00    +0.000 C 
ENDROOT
TORSDOF 0
