REMARK  Name = ligand_9127204
REMARK  3 active torsions:
REMARK  status: ('A' for Active; 'I' for Inactive)
REMARK    1  A    between atoms: C_1  and  C_2
REMARK    2  A    between atoms: C_6  and  C_7
REMARK    3  A    between atoms: C_7  and  N_8
REMARK                            x       y       z     vdW  Elec       q    Type
REMARK                         _______ _______ _______ _____ _____    ______ ____
ROOT
ATOM      1  C   UNL     1       1.053  -0.046   0.181  0.00  0.00    +0.000 C 
ATOM      2  C   UNL     1       2.570  -0.076   0.102  0.00  0.00    +0.000 C 
ATOM      3  C   UNL     1       3.192  -0.978  -1.015  0.00  0.00    +0.000 C 
ATOM      4  C   UNL     1       4.702  -0.892  -0.849  0.00  0.00    +0.000 C 
ATOM      5  C   UNL     1       4.820   0.626  -0.714  0.00  0.00    +0.000 C 
ATOM      6  C   UNL     1       3.328   0.962  -0.804  0.00  0.00    +0.000 C 
ATOM      7  O   UNL     1       2.835   0.137  -1.961  0.00  0.00    +0.000 OA
ENDROOT
BRANCH   6   8
ATOM      8  C   UNL     1       2.937   2.421  -0.879  0.00  0.00    +0.000 C 
BRANCH   8   9
ATOM      9  N   UNL     1       3.366   3.149   0.321  0.00  0.00    +0.000 NA
ATOM     10  H   UNL     1       2.861   2.799   1.134  0.00  0.00    +0.000 HD
ATOM     11  H   UNL     1       3.103   4.129   0.226  0.00  0.00    +0.000 HD
ENDBRANCH   8   9
ENDBRANCH   6   8
TORSDOF 2
