REMARK  Name = ligand_9127310
REMARK  2 active torsions:
REMARK  status: ('A' for Active; 'I' for Inactive)
REMARK    1  A    between atoms: C_1  and  C_2
REMARK    2  A    between atoms: N_8  and  O_9
REMARK                            x       y       z     vdW  Elec       q    Type
REMARK                         _______ _______ _______ _____ _____    ______ ____
ROOT
ATOM      1  C   UNL     1       0.977  -0.097  -0.087  0.00  0.00    +0.000 C 
ATOM      2  C   UNL     1       2.492  -0.152  -0.076  0.00  0.00    +0.000 C 
ATOM      3  C   UNL     1       3.092   1.060   0.695  0.00  0.00    +0.000 C 
ATOM      4  C   UNL     1       2.936   0.848   2.255  0.00  0.00    +0.000 C 
ATOM      5  C   UNL     1       3.858  -0.362   1.867  0.00  0.00    +0.000 C 
ATOM      6  N   UNL     1       4.569   0.705   1.003  0.00  0.00    +0.000 NA
ATOM      7  C   UNL     1       3.075  -1.227   0.808  0.00  0.00    +0.000 C 
ATOM      8  N   UNL     1       3.034  -2.513   0.747  0.00  0.00    +0.000 NA
ATOM      9  H   UNL     1       5.086   0.320   0.212  0.00  0.00    +0.000 HD
ENDROOT
BRANCH   8  10
ATOM     10  O   UNL     1       2.292  -2.920  -0.366  0.00  0.00    +0.000 OA
ATOM     11  H   UNL     1       2.320  -3.893  -0.292  0.00  0.00    +0.000 HD
ENDBRANCH   8  10
TORSDOF 1
