REMARK  Name = ligand_9127301
REMARK  2 active torsions:
REMARK  status: ('A' for Active; 'I' for Inactive)
REMARK    1  A    between atoms: C_1  and  C_2
REMARK    2  A    between atoms: C_4  and  C_5
REMARK                            x       y       z     vdW  Elec       q    Type
REMARK                         _______ _______ _______ _____ _____    ______ ____
ROOT
ATOM      1  C   UNL     1       1.076  -0.101  -0.005  0.00  0.00    +0.000 C 
ATOM      2  C   UNL     1       2.586   0.009  -0.151  0.00  0.00    +0.000 C 
ATOM      3  C   UNL     1       3.324   1.065  -1.061  0.00  0.00    +0.000 C 
ATOM      4  C   UNL     1       2.874   0.094  -2.206  0.00  0.00    +0.000 C 
ATOM      5  C   UNL     1       3.629   0.012  -3.525  0.00  0.00    +0.000 C 
ATOM      6  N   UNL     1       3.242  -0.995  -1.154  0.00  0.00    +0.000 NA
ATOM      7  C   UNL     1       4.734  -0.806  -0.876  0.00  0.00    +0.000 C 
ATOM      8  C   UNL     1       4.835   0.718  -0.821  0.00  0.00    +0.000 C 
ATOM      9  O   UNL     1       5.828   1.393  -0.635  0.00  0.00    +0.000 OA
ENDROOT
TORSDOF 0
