REMARK  Name = ligand_9127763
REMARK  2 active torsions:
REMARK  status: ('A' for Active; 'I' for Inactive)
REMARK    1  A    between atoms: C_1  and  C_2
REMARK    2  A    between atoms: C_8  and  C_9
REMARK                            x       y       z     vdW  Elec       q    Type
REMARK                         _______ _______ _______ _____ _____    ______ ____
ROOT
ATOM      1  C   UNL     1       0.681   0.188  -0.044  0.00  0.00    +0.000 C 
ATOM      2  C   UNL     1       2.132  -0.044   0.185  0.00  0.00    +0.000 C 
ATOM      3  C   UNL     1       3.223   0.353  -0.774  0.00  0.00    +0.000 C 
ATOM      4  C   UNL     1       3.004   0.637  -2.212  0.00  0.00    +0.000 C 
ATOM      5  O   UNL     1       3.183   1.722  -2.739  0.00  0.00    +0.000 OA
ATOM      6  N   UNL     1       2.623  -0.527  -2.821  0.00  0.00    +0.000 N 
ATOM      7  C   UNL     1       2.483  -1.649  -1.927  0.00  0.00    +0.000 C 
ATOM      8  C   UNL     1       2.895  -1.121  -0.568  0.00  0.00    +0.000 C 
ATOM      9  C   UNL     1       3.770  -2.024   0.245  0.00  0.00    +0.000 C 
ATOM     10  H   UNL     1       2.489  -0.563  -3.823  0.00  0.00    +0.000 HD
ENDROOT
TORSDOF 0
