REMARK  Name = ligand_9127802
REMARK  1 active torsions:
REMARK  status: ('A' for Active; 'I' for Inactive)
REMARK    1  A    between atoms: C_1  and  C_2
REMARK                            x       y       z     vdW  Elec       q    Type
REMARK                         _______ _______ _______ _____ _____    ______ ____
ROOT
ATOM      1  C   UNL     1       0.718  -0.040  -0.058  0.00  0.00    +0.000 C 
ATOM      2  C   UNL     1       2.186   0.194   0.016  0.00  0.00    +0.000 C 
ATOM      3  C   UNL     1       2.985   0.741  -1.133  0.00  0.00    +0.000 C 
ATOM      4  N   UNL     1       3.204  -0.649  -0.605  0.00  0.00    +0.000 NA
ATOM      5  C   UNL     1       2.776  -1.602  -1.670  0.00  0.00    +0.000 C 
ATOM      6  C   UNL     1       2.536  -0.778  -2.918  0.00  0.00    +0.000 C 
ATOM      7  O   UNL     1       2.345  -1.202  -4.046  0.00  0.00    +0.000 OA
ATOM      8  C   UNL     1       2.526   0.650  -2.514  0.00  0.00    +0.000 C 
ATOM      9  C   UNL     1       2.049   1.602  -3.326  0.00  0.00    +0.000 C 
ENDROOT
TORSDOF 0
