REMARK  Name = ligand_9128766
REMARK  5 active torsions:
REMARK  status: ('A' for Active; 'I' for Inactive)
REMARK    1  A    between atoms: C_1  and  C_2
REMARK    2  A    between atoms: C_2  and  O_5
REMARK    3  A    between atoms: O_5  and  C_6
REMARK    4  A    between atoms: C_6  and  C_7
REMARK    5  A    between atoms: N_8  and  O_9
REMARK                            x       y       z     vdW  Elec       q    Type
REMARK                         _______ _______ _______ _____ _____    ______ ____
ROOT
ATOM      1  O   UNL     1       2.817   0.068   1.493  0.00  0.00    +0.000 OA
ENDROOT
BRANCH   1   3
ATOM      2  C   UNL     1       0.958   0.026  -0.165  0.00  0.00    +0.000 C 
ATOM      3  C   UNL     1       2.432  -0.029   0.103  0.00  0.00    +0.000 C 
ATOM      4  C   UNL     1       3.350   0.719  -0.831  0.00  0.00    +0.000 C 
ATOM      5  C   UNL     1       3.354  -0.783  -0.817  0.00  0.00    +0.000 C 
ENDBRANCH   1   3
BRANCH   1   6
ATOM      6  C   UNL     1       2.386  -1.018   2.305  0.00  0.00    +0.000 C 
BRANCH   6   7
ATOM      7  C   UNL     1       2.826  -0.730   3.716  0.00  0.00    +0.000 C 
ATOM      8  N   UNL     1       1.965  -0.646   4.682  0.00  0.00    +0.000 NA
BRANCH   8   9
ATOM      9  O   UNL     1       2.646  -0.383   5.876  0.00  0.00    +0.000 OA
ATOM     10  H   UNL     1       1.915  -0.282   6.515  0.00  0.00    +0.000 HD
ENDBRANCH   8   9
ENDBRANCH   6   7
ENDBRANCH   1   6
TORSDOF 4
