REMARK  Name = ligand_9128792
REMARK  4 active torsions:
REMARK  status: ('A' for Active; 'I' for Inactive)
REMARK    1  A    between atoms: C_1  and  C_2
REMARK    2  A    between atoms: C_2  and  O_5
REMARK    3  A    between atoms: O_5  and  C_6
REMARK    4  A    between atoms: N_8  and  O_9
REMARK                            x       y       z     vdW  Elec       q    Type
REMARK                         _______ _______ _______ _____ _____    ______ ____
ROOT
ATOM      1  C   UNL     1       2.524   0.814   2.506  0.00  0.00    +0.000 C 
ATOM      2  N   UNL     1       2.344   2.070   2.273  0.00  0.00    +0.000 NA
ATOM      3  N   UNL     1       2.473   0.252   3.751  0.00  0.00    +0.000 N 
ATOM      4  H   UNL     1       2.460   2.237   1.269  0.00  0.00    +0.000 HD
ATOM      5  H   UNL     1       2.928  -0.652   3.830  0.00  0.00    +0.000 HD
ENDROOT
BRANCH   3   6
ATOM      6  O   UNL     1       2.780   1.150   4.780  0.00  0.00    +0.000 OA
ATOM      7  H   UNL     1       2.487   2.013   4.406  0.00  0.00    +0.000 HD
ENDBRANCH   3   6
BRANCH   1   8
ATOM      8  O   UNL     1       2.801  -0.108   1.549  0.00  0.00    +0.000 OA
BRANCH   8  10
ATOM      9  C   UNL     1       0.919   0.071  -0.037  0.00  0.00    +0.000 C 
ATOM     10  C   UNL     1       2.401   0.088   0.179  0.00  0.00    +0.000 C 
ATOM     11  C   UNL     1       3.314   0.843  -0.751  0.00  0.00    +0.000 C 
ATOM     12  C   UNL     1       3.276  -0.657  -0.801  0.00  0.00    +0.000 C 
ENDBRANCH   8  10
ENDBRANCH   1   8
TORSDOF 3
