REMARK  Name = ligand_9128819
REMARK  4 active torsions:
REMARK  status: ('A' for Active; 'I' for Inactive)
REMARK    1  A    between atoms: C_1  and  C_2
REMARK    2  A    between atoms: C_2  and  C_8
REMARK    3  A    between atoms: C_4  and  O_5
REMARK    4  A    between atoms: O_5  and  N_6
REMARK                            x       y       z     vdW  Elec       q    Type
REMARK                         _______ _______ _______ _____ _____    ______ ____
ROOT
ATOM      1  C   UNL     1       0.745  -0.018  -0.196  0.00  0.00    +0.000 C 
ATOM      2  C   UNL     1       2.229  -0.098   0.057  0.00  0.00    +0.000 C 
ATOM      3  C   UNL     1       3.162   0.608  -0.904  0.00  0.00    +0.000 C 
ATOM      4  C   UNL     1       3.095  -0.894  -0.912  0.00  0.00    +0.000 C 
ENDROOT
BRANCH   2   5
ATOM      5  C   UNL     1       2.625  -0.164   1.481  0.00  0.00    +0.000 C 
ATOM      6  C   UNL     1       2.876   0.877   2.289  0.00  0.00    +0.000 C 
ENDBRANCH   2   5
BRANCH   4   7
ATOM      7  O   UNL     1       2.457  -1.472  -2.069  0.00  0.00    +0.000 OA
BRANCH   7   8
ATOM      8  N   UNL     1       1.943  -2.709  -1.664  0.00  0.00    +0.000 NA
ATOM      9  C   UNL     1       1.316  -3.235  -2.660  0.00  0.00    +0.000 C 
ENDBRANCH   7   8
ENDBRANCH   4   7
TORSDOF 3
