REMARK  Name = ligand_9128694
REMARK  3 active torsions:
REMARK  status: ('A' for Active; 'I' for Inactive)
REMARK    1  A    between atoms: C_1  and  C_2
REMARK    2  A    between atoms: C_2  and  N_5
REMARK    3  A    between atoms: N_5  and  N_6
REMARK                            x       y       z     vdW  Elec       q    Type
REMARK                         _______ _______ _______ _____ _____    ______ ____
ROOT
ATOM      1  N   UNL     1       1.981  -1.290   2.058  0.00  0.00    +0.000 N 
ATOM      2  C   UNL     1       1.084  -1.127   3.094  0.00  0.00    +0.000 C 
ATOM      3  N   UNL     1       0.657  -2.306   3.612  0.00  0.00    +0.000 N 
ATOM      4  O   UNL     1       0.683  -0.050   3.515  0.00  0.00    +0.000 OA
ATOM      5  H   UNL     1       2.490  -2.163   2.006  0.00  0.00    +0.000 HD
ATOM      6  H   UNL     1       0.572  -3.092   2.986  0.00  0.00    +0.000 HD
ATOM      7  H   UNL     1      -0.100  -2.202   4.279  0.00  0.00    +0.000 HD
ENDROOT
BRANCH   1   8
ATOM      8  N   UNL     1       2.587  -0.148   1.504  0.00  0.00    +0.000 NA
ATOM      9  H   UNL     1       2.181   0.676   1.969  0.00  0.00    +0.000 HD
BRANCH   8  11
ATOM     10  C   UNL     1       0.819  -0.047  -0.325  0.00  0.00    +0.000 C 
ATOM     11  C   UNL     1       2.281  -0.122   0.054  0.00  0.00    +0.000 C 
ATOM     12  C   UNL     1       3.245   0.646  -0.823  0.00  0.00    +0.000 C 
ATOM     13  C   UNL     1       3.225  -0.854  -0.873  0.00  0.00    +0.000 C 
ENDBRANCH   8  11
ENDBRANCH   1   8
TORSDOF 2
