REMARK  Name = ligand_9128942
REMARK  0 active torsions:
REMARK  status: ('A' for Active; 'I' for Inactive)
REMARK                            x       y       z     vdW  Elec       q    Type
REMARK                         _______ _______ _______ _____ _____    ______ ____
ROOT
ATOM      1  C   UNL     1       0.818   0.060  -0.547  0.00  0.00    +0.000 C 
ATOM      2  C   UNL     1       2.080  -0.019  -0.115  0.00  0.00    +0.000 C 
ATOM      3  C   UNL     1       3.144   1.047  -0.092  0.00  0.00    +0.000 C 
ATOM      4  C   UNL     1       4.144   0.527   0.924  0.00  0.00    +0.000 C 
ATOM      5  C   UNL     1       4.633   1.456   2.005  0.00  0.00    +0.000 C 
ATOM      6  C   UNL     1       5.578   0.978   0.937  0.00  0.00    +0.000 C 
ATOM      7  N   UNL     1       3.782  -0.824   1.205  0.00  0.00    +0.000 N 
ATOM      8  C   UNL     1       2.621  -1.225   0.583  0.00  0.00    +0.000 C 
ATOM      9  O   UNL     1       2.137  -2.339   0.589  0.00  0.00    +0.000 OA
ATOM     10  H   UNL     1       4.364  -1.496   1.686  0.00  0.00    +0.000 HD
ENDROOT
TORSDOF 0
