REMARK  Name = ligand_9128117
REMARK  2 active torsions:
REMARK  status: ('A' for Active; 'I' for Inactive)
REMARK    1  A    between atoms: C_1  and  C_2
REMARK    2  A    between atoms: C_8  and  N_9
REMARK                            x       y       z     vdW  Elec       q    Type
REMARK                         _______ _______ _______ _____ _____    ______ ____
ROOT
ATOM      1  C   UNL     1       0.922   0.159   0.107  0.00  0.00    +0.000 C 
ATOM      2  C   UNL     1       2.439   0.135   0.084  0.00  0.00    +0.000 C 
ATOM      3  C   UNL     1       3.072   0.997  -1.052  0.00  0.00    +0.000 C 
ATOM      4  O   UNL     1       2.640   0.289  -2.252  0.00  0.00    +0.000 OA
ATOM      5  C   UNL     1       3.147  -1.040  -1.912  0.00  0.00    +0.000 C 
ATOM      6  C   UNL     1       4.353  -0.809  -1.026  0.00  0.00    +0.000 C 
ATOM      7  O   UNL     1       4.484   0.644  -0.918  0.00  0.00    +0.000 OA
ATOM      8  C   UNL     1       3.025  -1.174  -0.424  0.00  0.00    +0.000 C 
ENDROOT
BRANCH   8   9
ATOM      9  N   UNL     1       2.792  -2.436   0.266  0.00  0.00    +0.000 NA
ATOM     10  H   UNL     1       2.960  -2.338   1.267  0.00  0.00    +0.000 HD
ATOM     11  H   UNL     1       3.430  -3.163  -0.053  0.00  0.00    +0.000 HD
ENDBRANCH   8   9
TORSDOF 1
