REMARK  Name = ligand_912906
REMARK  5 active torsions:
REMARK  status: ('A' for Active; 'I' for Inactive)
REMARK    1  A    between atoms: C_1  and  C_2
REMARK    2  A    between atoms: C_4  and  C_5
REMARK    3  A    between atoms: C_4  and  C_6
REMARK    4  A    between atoms: C_6  and  N_7
REMARK    5  A    between atoms: C_6  and  C_8
REMARK                            x       y       z     vdW  Elec       q    Type
REMARK                         _______ _______ _______ _____ _____    ______ ____
ROOT
ATOM      1  C   UNL     1       2.431  -1.491  -2.164  0.00  0.00    +0.000 C 
ENDROOT
BRANCH   1   5
ATOM      2  C   UNL     1       0.991   0.066   0.020  0.00  0.00    +0.000 C 
ATOM      3  C   UNL     1       2.484  -0.052   0.017  0.00  0.00    +0.000 C 
ATOM      4  C   UNL     1       3.257   0.719  -1.011  0.00  0.00    +0.000 C 
ATOM      5  C   UNL     1       3.247  -0.803  -1.078  0.00  0.00    +0.000 C 
ATOM      6  C   UNL     1       4.568  -1.460  -0.702  0.00  0.00    +0.000 C 
ENDBRANCH   1   5
BRANCH   1   7
ATOM      7  N   UNL     1       2.910  -1.115  -3.484  0.00  0.00    +0.000 NA
ATOM      8  H   UNL     1       3.900  -1.337  -3.551  0.00  0.00    +0.000 HD
ATOM      9  H   UNL     1       2.830  -0.108  -3.589  0.00  0.00    +0.000 HD
ENDBRANCH   1   7
BRANCH   1  10
ATOM     10  C   UNL     1       2.632  -2.985  -1.968  0.00  0.00    +0.000 C 
ATOM     11  C   UNL     1       2.804  -4.267  -1.800  0.00  0.00    +0.000 C 
ENDBRANCH   1  10
TORSDOF 3
