REMARK  Name = ligand_9129352
REMARK  1 active torsions:
REMARK  status: ('A' for Active; 'I' for Inactive)
REMARK    1  A    between atoms: C_1  and  C_2
REMARK                            x       y       z     vdW  Elec       q    Type
REMARK                         _______ _______ _______ _____ _____    ______ ____
ROOT
ATOM      1  C   UNL     1       1.032   0.059  -0.078  0.00  0.00    +0.000 C 
ATOM      2  C   UNL     1       2.551  -0.004  -0.125  0.00  0.00    +0.000 C 
ATOM      3  C   UNL     1       3.067  -1.345  -0.780  0.00  0.00    +0.000 C 
ATOM      4  C   UNL     1       3.842  -0.821  -1.912  0.00  0.00    +0.000 A 
ATOM      5  C   UNL     1       4.613  -1.215  -2.959  0.00  0.00    +0.000 A 
ATOM      6  O   UNL     1       5.053  -0.092  -3.613  0.00  0.00    +0.000 OA
ATOM      7  N   UNL     1       4.550   1.053  -2.971  0.00  0.00    +0.000 NA
ATOM      8  C   UNL     1       3.820   0.569  -1.978  0.00  0.00    +0.000 A 
ATOM      9  N   UNL     1       3.063   1.075  -0.994  0.00  0.00    +0.000 N 
ATOM     10  H   UNL     1       3.068   2.045  -0.707  0.00  0.00    +0.000 HD
ENDROOT
TORSDOF 0
