REMARK  Name = ligand_9129509
REMARK  1 active torsions:
REMARK  status: ('A' for Active; 'I' for Inactive)
REMARK    1  A    between atoms: C_1  and  C_2
REMARK                            x       y       z     vdW  Elec       q    Type
REMARK                         _______ _______ _______ _____ _____    ______ ____
ROOT
ATOM      1  C   UNL     1       1.214   0.136   0.207  0.00  0.00    +0.000 C 
ATOM      2  C   UNL     1       2.733   0.089   0.291  0.00  0.00    +0.000 C 
ATOM      3  C   UNL     1       3.284  -1.286   0.708  0.00  0.00    +0.000 C 
ATOM      4  C   UNL     1       3.519  -1.131   2.188  0.00  0.00    +0.000 C 
ATOM      5  N   UNL     1       4.737  -1.709   2.783  0.00  0.00    +0.000 NA
ATOM      6  C   UNL     1       5.285  -0.619   3.643  0.00  0.00    +0.000 C 
ATOM      7  C   UNL     1       4.738   0.647   3.072  0.00  0.00    +0.000 C 
ATOM      8  C   UNL     1       3.753   0.323   2.238  0.00  0.00    +0.000 C 
ATOM      9  O   UNL     1       3.183   1.073   1.254  0.00  0.00    +0.000 OA
ATOM     10  H   UNL     1       5.415  -1.862   2.036  0.00  0.00    +0.000 HD
ENDROOT
TORSDOF 0
