REMARK  Name = ligand_9129219
REMARK  1 active torsions:
REMARK  status: ('A' for Active; 'I' for Inactive)
REMARK    1  A    between atoms: C_1  and  C_2
REMARK                            x       y       z     vdW  Elec       q    Type
REMARK                         _______ _______ _______ _____ _____    ______ ____
ROOT
ATOM      1  C   UNL     1       1.015   0.284   0.009  0.00  0.00    +0.000 C 
ATOM      2  C   UNL     1       2.473   0.604   0.271  0.00  0.00    +0.000 C 
ATOM      3  C   UNL     1       2.804   1.949   1.102  0.00  0.00    +0.000 C 
ATOM      4  C   UNL     1       3.257   0.994   2.152  0.00  0.00    +0.000 A 
ATOM      5  C   UNL     1       3.748   0.674   3.340  0.00  0.00    +0.000 A 
ATOM      6  N   UNL     1       3.783  -0.721   3.348  0.00  0.00    +0.000 N 
ATOM      7  C   UNL     1       3.277  -1.241   2.099  0.00  0.00    +0.000 A 
ATOM      8  O   UNL     1       3.170  -2.411   1.781  0.00  0.00    +0.000 OA
ATOM      9  N   UNL     1       2.970  -0.093   1.404  0.00  0.00    +0.000 N 
ATOM     10  H   UNL     1       4.098  -1.316   4.100  0.00  0.00    +0.000 HD
ENDROOT
TORSDOF 0
