REMARK  Name = ligand_9129742
REMARK  1 active torsions:
REMARK  status: ('A' for Active; 'I' for Inactive)
REMARK    1  A    between atoms: C_1  and  C_2
REMARK                            x       y       z     vdW  Elec       q    Type
REMARK                         _______ _______ _______ _____ _____    ______ ____
ROOT
ATOM      1  C   UNL     1       1.206  -0.147  -0.046  0.00  0.00    +0.000 C 
ATOM      2  C   UNL     1       2.685  -0.040  -0.043  0.00  0.00    +0.000 A 
ATOM      3  N   UNL     1       3.461  -1.146  -0.052  0.00  0.00    +0.000 NA
ATOM      4  N   UNL     1       4.679  -0.618  -0.047  0.00  0.00    +0.000 N 
ATOM      5  C   UNL     1       5.973  -1.241  -0.057  0.00  0.00    +0.000 C 
ATOM      6  C   UNL     1       6.861   0.016  -0.059  0.00  0.00    +0.000 C 
ATOM      7  O   UNL     1       5.991   1.192  -0.038  0.00  0.00    +0.000 OA
ATOM      8  C   UNL     1       4.749   0.725  -0.038  0.00  0.00    +0.000 A 
ATOM      9  C   UNL     1       3.458   1.167  -0.034  0.00  0.00    +0.000 A 
ENDROOT
TORSDOF 0
