REMARK  Name = ligand_9130367
REMARK  3 active torsions:
REMARK  status: ('A' for Active; 'I' for Inactive)
REMARK    1  A    between atoms: C_1  and  C_2
REMARK    2  A    between atoms: C_2  and  C_7
REMARK    3  A    between atoms: N_8  and  O_9
REMARK                            x       y       z     vdW  Elec       q    Type
REMARK                         _______ _______ _______ _____ _____    ______ ____
ROOT
ATOM      1  C   UNL     1       0.998  -0.103  -0.007  0.00  0.00    +0.000 C 
ATOM      2  C   UNL     1       2.535  -0.115  -0.019  0.00  0.00    +0.000 C 
ATOM      3  C   UNL     1       3.084   1.110  -0.781  0.00  0.00    +0.000 C 
ATOM      4  C   UNL     1       3.328   0.572  -2.155  0.00  0.00    +0.000 C 
ATOM      5  C   UNL     1       3.322  -0.765  -2.168  0.00  0.00    +0.000 C 
ATOM      6  C   UNL     1       3.077  -1.328  -0.803  0.00  0.00    +0.000 C 
ENDROOT
BRANCH   2   7
ATOM      7  C   UNL     1       3.013  -0.097   1.418  0.00  0.00    +0.000 C 
ATOM      8  N   UNL     1       3.215  -1.190   2.081  0.00  0.00    +0.000 NA
BRANCH   8   9
ATOM      9  O   UNL     1       3.606  -0.864   3.385  0.00  0.00    +0.000 OA
ATOM     10  H   UNL     1       3.733  -1.742   3.791  0.00  0.00    +0.000 HD
ENDBRANCH   8   9
ENDBRANCH   2   7
TORSDOF 2
