REMARK  Name = ligand_9130366
REMARK  3 active torsions:
REMARK  status: ('A' for Active; 'I' for Inactive)
REMARK    1  A    between atoms: C_1  and  C_2
REMARK    2  A    between atoms: C_2  and  C_3
REMARK    3  A    between atoms: C_6  and  C_7
REMARK                            x       y       z     vdW  Elec       q    Type
REMARK                         _______ _______ _______ _____ _____    ______ ____
ROOT
ATOM      1  C   UNL     1       1.003  -1.457   0.053  0.00  0.00    +0.000 C 
ATOM      2  C   UNL     1       0.434  -0.038  -0.006  0.00  0.00    +0.000 C 
ATOM      3  C   UNL     1       1.553   1.001  -0.038  0.00  0.00    +0.000 C 
ATOM      4  C   UNL     1      -0.638   0.241   1.084  0.00  0.00    +0.000 C 
ATOM      5  C   UNL     1      -1.728  -0.050   0.039  0.00  0.00    +0.000 C 
ATOM      6  C   UNL     1      -0.687   0.217  -1.077  0.00  0.00    +0.000 C 
ENDROOT
BRANCH   6   7
ATOM      7  C   UNL     1      -0.732  -0.703  -2.333  0.00  0.00    +0.000 C 
ATOM      8  N   UNL     1      -0.277  -0.119  -3.485  0.00  0.00    +0.000 N 
ATOM      9  O   UNL     1      -1.132  -1.865  -2.377  0.00  0.00    +0.000 OA
ATOM     10  H   UNL     1       0.068   0.828  -3.527  0.00  0.00    +0.000 HD
ATOM     11  H   UNL     1      -0.282  -0.681  -4.326  0.00  0.00    +0.000 HD
ENDBRANCH   6   7
TORSDOF 1
