REMARK  Name = ligand_9130123
REMARK  3 active torsions:
REMARK  status: ('A' for Active; 'I' for Inactive)
REMARK    1  A    between atoms: C_1  and  C_2
REMARK    2  A    between atoms: C_5  and  C_6
REMARK    3  A    between atoms: C_6  and  N_7
REMARK                            x       y       z     vdW  Elec       q    Type
REMARK                         _______ _______ _______ _____ _____    ______ ____
ROOT
ATOM      1  C   UNL     1       1.073  -0.087   0.064  0.00  0.00    +0.000 C 
ATOM      2  C   UNL     1       2.579   0.145   0.141  0.00  0.00    +0.000 C 
ATOM      3  C   UNL     1       2.906   1.585   0.494  0.00  0.00    +0.000 C 
ATOM      4  C   UNL     1       3.548   1.637   1.674  0.00  0.00    +0.000 C 
ATOM      5  C   UNL     1       3.739   0.311   2.302  0.00  0.00    +0.000 C 
ATOM      6  O   UNL     1       2.627  -0.582   2.540  0.00  0.00    +0.000 OA
ATOM      7  C   UNL     1       3.228  -0.674   1.252  0.00  0.00    +0.000 C 
ENDROOT
BRANCH   5   8
ATOM      8  C   UNL     1       4.862   0.049   3.262  0.00  0.00    +0.000 C 
BRANCH   8   9
ATOM      9  N   UNL     1       6.166   0.473   2.758  0.00  0.00    +0.000 NA
ATOM     10  H   UNL     1       6.433  -0.123   1.978  0.00  0.00    +0.000 HD
ATOM     11  H   UNL     1       6.864   0.315   3.484  0.00  0.00    +0.000 HD
ENDBRANCH   8   9
ENDBRANCH   5   8
TORSDOF 2
