REMARK  Name = ligand_9131426
REMARK  3 active torsions:
REMARK  status: ('A' for Active; 'I' for Inactive)
REMARK    1  A    between atoms: C_1  and  C_2
REMARK    2  A    between atoms: C_2  and  C_3
REMARK    3  A    between atoms: C_3  and  C_4
REMARK                            x       y       z     vdW  Elec       q    Type
REMARK                         _______ _______ _______ _____ _____    ______ ____
ROOT
ATOM      1  C   UNL     1       0.891  -0.058   0.265  0.00  0.00    +0.000 C 
ATOM      2  C   UNL     1       2.387  -0.024  -0.027  0.00  0.00    +0.000 C 
ATOM      3  N   UNL     1       3.124  -1.045   0.757  0.00  0.00    +0.000 NA
ATOM      4  C   UNL     1       4.023  -0.081   1.412  0.00  0.00    +0.000 C 
ATOM      5  C   UNL     1       3.156   1.031   0.810  0.00  0.00    +0.000 C 
ATOM      6  O   UNL     1       3.128   2.242   0.905  0.00  0.00    +0.000 OA
ATOM      7  H   UNL     1       3.591  -1.761   0.199  0.00  0.00    +0.000 HD
ENDROOT
BRANCH   2   8
ATOM      8  C   UNL     1       2.761   0.022  -1.518  0.00  0.00    +0.000 C 
BRANCH   8   9
ATOM      9  C   UNL     1       2.308  -1.212  -2.254  0.00  0.00    +0.000 C 
ATOM     10  C   UNL     1       3.126  -2.035  -2.921  0.00  0.00    +0.000 C 
ENDBRANCH   8   9
ENDBRANCH   2   8
TORSDOF 2
