REMARK  Name = ligand_9131755
REMARK  3 active torsions:
REMARK  status: ('A' for Active; 'I' for Inactive)
REMARK    1  A    between atoms: C_1  and  C_2
REMARK    2  A    between atoms: N_6  and  N_7
REMARK    3  A    between atoms: N_8  and  O_9
REMARK                            x       y       z     vdW  Elec       q    Type
REMARK                         _______ _______ _______ _____ _____    ______ ____
ROOT
ATOM      1  C   UNL     1       0.996   0.064  -0.048  0.00  0.00    +0.000 C 
ATOM      2  C   UNL     1       2.499  -0.043   0.156  0.00  0.00    +0.000 C 
ATOM      3  C   UNL     1       3.090  -1.235  -0.561  0.00  0.00    +0.000 C 
ATOM      4  C   UNL     1       4.049  -0.930  -1.448  0.00  0.00    +0.000 C 
ATOM      5  C   UNL     1       4.159   0.539  -1.376  0.00  0.00    +0.000 C 
ATOM      6  N   UNL     1       4.990   1.176  -2.150  0.00  0.00    +0.000 NA
ATOM      7  N   UNL     1       3.280   1.061  -0.427  0.00  0.00    +0.000 N 
ENDROOT
BRANCH   6   8
ATOM      8  N   UNL     1       5.071   2.518  -1.943  0.00  0.00    +0.000 N 
ATOM      9  H   UNL     1       5.944   2.869  -2.343  0.00  0.00    +0.000 HD
ATOM     10  H   UNL     1       5.110   2.728  -0.940  0.00  0.00    +0.000 HD
ENDBRANCH   6   8
BRANCH   7  11
ATOM     11  O   UNL     1       2.518   2.130  -0.940  0.00  0.00    +0.000 OA
ATOM     12  H   UNL     1       3.112   2.500  -1.635  0.00  0.00    +0.000 HD
ENDBRANCH   7  11
TORSDOF 2
