REMARK  Name = ligand_9131566
REMARK  4 active torsions:
REMARK  status: ('A' for Active; 'I' for Inactive)
REMARK    1  A    between atoms: C_1  and  C_2
REMARK    2  A    between atoms: C_5  and  N_6
REMARK    3  A    between atoms: C_5  and  C_7
REMARK    4  A    between atoms: C_7  and  O_8
REMARK                            x       y       z     vdW  Elec       q    Type
REMARK                         _______ _______ _______ _____ _____    ______ ____
ROOT
ATOM      1  C   UNL     1       0.930   0.100  -0.048  0.00  0.00    +0.000 C 
ATOM      2  C   UNL     1       2.449   0.082   0.002  0.00  0.00    +0.000 C 
ATOM      3  C   UNL     1       3.013  -1.208   0.607  0.00  0.00    +0.000 C 
ATOM      4  C   UNL     1       4.244  -0.805   1.427  0.00  0.00    +0.000 C 
ATOM      5  C   UNL     1       4.455   0.700   1.182  0.00  0.00    +0.000 C 
ATOM      6  C   UNL     1       3.036   1.197   0.870  0.00  0.00    +0.000 C 
ENDROOT
BRANCH   5   7
ATOM      7  N   UNL     1       5.005   1.352   2.385  0.00  0.00    +0.000 NA
ATOM      8  H   UNL     1       5.772   0.782   2.743  0.00  0.00    +0.000 HD
ATOM      9  H   UNL     1       4.302   1.334   3.126  0.00  0.00    +0.000 HD
ENDBRANCH   5   7
BRANCH   5  10
ATOM     10  C   UNL     1       5.421   0.961  -0.005  0.00  0.00    +0.000 C 
BRANCH  10  11
ATOM     11  O   UNL     1       6.731   0.479   0.288  0.00  0.00    +0.000 OA
ATOM     12  H   UNL     1       7.035   1.020   1.041  0.00  0.00    +0.000 HD
ENDBRANCH  10  11
ENDBRANCH   5  10
TORSDOF 3
