REMARK  Name = ligand_9131618
REMARK  2 active torsions:
REMARK  status: ('A' for Active; 'I' for Inactive)
REMARK    1  A    between atoms: C_1  and  C_2
REMARK    2  A    between atoms: C_4  and  C_5
REMARK                            x       y       z     vdW  Elec       q    Type
REMARK                         _______ _______ _______ _____ _____    ______ ____
ROOT
ATOM      1  C   UNL     1       1.164   0.064  -0.090  0.00  0.00    +0.000 C 
ATOM      2  C   UNL     1       2.646  -0.040  -0.149  0.00  0.00    +0.000 C 
ATOM      3  C   UNL     1       3.388  -1.140  -0.097  0.00  0.00    +0.000 C 
ATOM      4  C   UNL     1       4.820  -0.751  -0.089  0.00  0.00    +0.000 C 
ATOM      5  C   UNL     1       4.682   0.744  -0.263  0.00  0.00    +0.000 C 
ATOM      6  O   UNL     1       5.619   1.521  -0.397  0.00  0.00    +0.000 OA
ATOM      7  O   UNL     1       3.364   1.149  -0.250  0.00  0.00    +0.000 OA
ENDROOT
BRANCH   4   8
ATOM      8  C   UNL     1       5.415  -1.041   1.280  0.00  0.00    +0.000 C 
ATOM      9  N   UNL     1       5.908  -1.282   2.415  0.00  0.00    +0.000 NA
ENDBRANCH   4   8
TORSDOF 1
