REMARK  Name = ligand_9131016
REMARK  2 active torsions:
REMARK  status: ('A' for Active; 'I' for Inactive)
REMARK    1  A    between atoms: C_1  and  C_2
REMARK    2  A    between atoms: N_8  and  O_9
REMARK                            x       y       z     vdW  Elec       q    Type
REMARK                         _______ _______ _______ _____ _____    ______ ____
ROOT
ATOM      1  C   UNL     1       0.996   0.102  -0.081  0.00  0.00    +0.000 C 
ATOM      2  C   UNL     1       2.518  -0.001  -0.011  0.00  0.00    +0.000 C 
ATOM      3  C   UNL     1       3.034  -1.325  -0.586  0.00  0.00    +0.000 C 
ATOM      4  C   UNL     1       3.795  -1.197  -1.857  0.00  0.00    +0.000 C 
ATOM      5  C   UNL     1       4.106  -0.018  -2.394  0.00  0.00    +0.000 C 
ATOM      6  C   UNL     1       3.737   1.252  -1.763  0.00  0.00    +0.000 C 
ATOM      7  O   UNL     1       3.071   1.203  -0.590  0.00  0.00    +0.000 OA
ATOM      8  N   UNL     1       4.074   2.376  -2.318  0.00  0.00    +0.000 NA
ENDROOT
BRANCH   8   9
ATOM      9  O   UNL     1       3.633   3.472  -1.561  0.00  0.00    +0.000 OA
ATOM     10  H   UNL     1       3.956   4.229  -2.082  0.00  0.00    +0.000 HD
ENDBRANCH   8   9
TORSDOF 1
