REMARK  Name = ligand_913164
REMARK  4 active torsions:
REMARK  status: ('A' for Active; 'I' for Inactive)
REMARK    1  A    between atoms: C_1  and  C_2
REMARK    2  A    between atoms: C_2  and  N_5
REMARK    3  A    between atoms: C_6  and  C_8
REMARK    4  A    between atoms: C_8  and  N_9
REMARK                            x       y       z     vdW  Elec       q    Type
REMARK                         _______ _______ _______ _____ _____    ______ ____
ROOT
ATOM      1  N   UNL     1       2.584   0.207   1.555  0.00  0.00    +0.000 N 
ATOM      2  C   UNL     1       2.872  -0.867   2.367  0.00  0.00    +0.000 C 
ATOM      3  N   UNL     1       2.445  -2.075   2.210  0.00  0.00    +0.000 NA
ATOM      4  H   UNL     1       3.136   1.027   1.815  0.00  0.00    +0.000 HD
ATOM      5  H   UNL     1       1.848  -2.093   1.380  0.00  0.00    +0.000 HD
ENDROOT
BRANCH   1   7
ATOM      6  C   UNL     1       0.752   0.039  -0.148  0.00  0.00    +0.000 C 
ATOM      7  C   UNL     1       2.233   0.045   0.135  0.00  0.00    +0.000 C 
ATOM      8  C   UNL     1       3.123   0.750  -0.871  0.00  0.00    +0.000 C 
ATOM      9  C   UNL     1       3.128  -0.744  -0.795  0.00  0.00    +0.000 C 
ENDBRANCH   1   7
BRANCH   2  10
ATOM     10  C   UNL     1       3.785  -0.571   3.569  0.00  0.00    +0.000 C 
BRANCH  10  11
ATOM     11  N   UNL     1       4.789   0.430   3.159  0.00  0.00    +0.000 NA
ATOM     12  H   UNL     1       5.287   0.050   2.351  0.00  0.00    +0.000 HD
ATOM     13  H   UNL     1       5.491   0.485   3.898  0.00  0.00    +0.000 HD
ENDBRANCH  10  11
ENDBRANCH   2  10
TORSDOF 3
