REMARK  Name = ligand_9132051
REMARK  3 active torsions:
REMARK  status: ('A' for Active; 'I' for Inactive)
REMARK    1  A    between atoms: C_1  and  C_2
REMARK    2  A    between atoms: C_4  and  O_7
REMARK    3  A    between atoms: O_7  and  N_8
REMARK                            x       y       z     vdW  Elec       q    Type
REMARK                         _______ _______ _______ _____ _____    ______ ____
ROOT
ATOM      1  C   UNL     1       2.148  -0.139  -0.925  0.00  0.00    +0.000 C 
ATOM      2  C   UNL     1       3.405  -0.599  -0.191  0.00  0.00    +0.000 C 
ATOM      3  C   UNL     1       3.142  -1.679   0.868  0.00  0.00    +0.000 C 
ATOM      4  C   UNL     1       3.565  -1.052   2.179  0.00  0.00    +0.000 C 
ATOM      5  C   UNL     1       4.460   0.083   1.753  0.00  0.00    +0.000 C 
ATOM      6  O   UNL     1       3.909   0.552   0.525  0.00  0.00    +0.000 OA
ENDROOT
BRANCH   4   7
ATOM      7  O   UNL     1       4.407  -1.035  -1.129  0.00  0.00    +0.000 OA
BRANCH   7   8
ATOM      8  N   UNL     1       3.967  -2.163  -1.852  0.00  0.00    +0.000 NA
ATOM      9  C   UNL     1       4.881  -2.485  -2.702  0.00  0.00    +0.000 C 
ENDBRANCH   7   8
ENDBRANCH   4   7
TORSDOF 2
