REMARK  Name = ligand_9133472
REMARK  0 active torsions:
REMARK  status: ('A' for Active; 'I' for Inactive)
REMARK                            x       y       z     vdW  Elec       q    Type
REMARK                         _______ _______ _______ _____ _____    ______ ____
ROOT
ATOM      1  C   UNL     1       0.927   0.019  -0.054  0.00  0.00    +0.000 C 
ATOM      2  C   UNL     1       2.269  -0.009  -0.054  0.00  0.00    +0.000 C 
ATOM      3  C   UNL     1       3.082   1.193  -0.053  0.00  0.00    +0.000 C 
ATOM      4  C   UNL     1       4.419   1.105  -0.052  0.00  0.00    +0.000 C 
ATOM      5  N   UNL     1       5.101  -0.084  -0.052  0.00  0.00    +0.000 N 
ATOM      6  C   UNL     1       4.492  -1.317  -0.053  0.00  0.00    +0.000 C 
ATOM      7  N   UNL     1       5.145  -2.435  -0.053  0.00  0.00    +0.000 NA
ATOM      8  C   UNL     1       2.943  -1.359  -0.055  0.00  0.00    +0.000 C 
ATOM      9  O   UNL     1       2.329  -2.415  -0.053  0.00  0.00    +0.000 OA
ATOM     10  H   UNL     1       6.111  -0.038  -0.053  0.00  0.00    +0.000 HD
ATOM     11  H   UNL     1       6.150  -2.269  -0.053  0.00  0.00    +0.000 HD
ENDROOT
TORSDOF 0
