REMARK  Name = ligand_9133967
REMARK  2 active torsions:
REMARK  status: ('A' for Active; 'I' for Inactive)
REMARK    1  A    between atoms: C_1  and  C_2
REMARK    2  A    between atoms: C_8  and  O_9
REMARK                            x       y       z     vdW  Elec       q    Type
REMARK                         _______ _______ _______ _____ _____    ______ ____
ROOT
ATOM      1  C   UNL     1       1.036   0.015  -0.024  0.00  0.00    +0.000 C 
ATOM      2  C   UNL     1       2.547   0.022  -0.051  0.00  0.00    +0.000 C 
ATOM      3  C   UNL     1       3.195   1.190  -0.064  0.00  0.00    +0.000 C 
ATOM      4  C   UNL     1       4.650   1.393  -0.081  0.00  0.00    +0.000 C 
ATOM      5  N   UNL     1       5.674   0.618  -0.085  0.00  0.00    +0.000 NA
ATOM      6  N   UNL     1       5.683  -0.748  -0.047  0.00  0.00    +0.000 NA
ATOM      7  C   UNL     1       4.665  -1.543  -0.018  0.00  0.00    +0.000 C 
ATOM      8  C   UNL     1       3.173  -1.327  -0.038  0.00  0.00    +0.000 C 
ENDROOT
BRANCH   8   9
ATOM      9  O   UNL     1       2.712  -2.034  -1.196  0.00  0.00    +0.000 OA
ATOM     10  H   UNL     1       3.034  -1.533  -1.968  0.00  0.00    +0.000 HD
ENDBRANCH   8   9
TORSDOF 1
