REMARK  Name = ligand_9133586
REMARK  3 active torsions:
REMARK  status: ('A' for Active; 'I' for Inactive)
REMARK    1  A    between atoms: C_1  and  C_2
REMARK    2  A    between atoms: C_4  and  N_5
REMARK    3  A    between atoms: N_8  and  O_9
REMARK                            x       y       z     vdW  Elec       q    Type
REMARK                         _______ _______ _______ _____ _____    ______ ____
ROOT
ATOM      1  C   UNL     1       1.059   0.150  -0.114  0.00  0.00    +0.000 C 
ATOM      2  C   UNL     1       2.538   0.019  -0.176  0.00  0.00    +0.000 C 
ATOM      3  C   UNL     1       3.259  -1.090  -0.052  0.00  0.00    +0.000 C 
ATOM      4  C   UNL     1       4.689  -0.755  -0.179  0.00  0.00    +0.000 C 
ATOM      5  C   UNL     1       4.561   0.732  -0.497  0.00  0.00    +0.000 C 
ATOM      6  O   UNL     1       3.266   1.185  -0.404  0.00  0.00    +0.000 OA
ATOM      7  N   UNL     1       5.506   1.555  -0.842  0.00  0.00    +0.000 NA
ENDROOT
BRANCH   4   8
ATOM      8  N   UNL     1       5.388  -0.990   1.089  0.00  0.00    +0.000 NA
ATOM      9  H   UNL     1       4.922  -0.454   1.822  0.00  0.00    +0.000 HD
ATOM     10  H   UNL     1       6.312  -0.562   1.000  0.00  0.00    +0.000 HD
ENDBRANCH   4   8
BRANCH   7  11
ATOM     11  O   UNL     1       6.739   0.896  -0.936  0.00  0.00    +0.000 OA
ATOM     12  H   UNL     1       7.312   1.584  -1.326  0.00  0.00    +0.000 HD
ENDBRANCH   7  11
TORSDOF 2
