REMARK  Name = ligand_913389
REMARK  3 active torsions:
REMARK  status: ('A' for Active; 'I' for Inactive)
REMARK    1  A    between atoms: C_1  and  C_2
REMARK    2  A    between atoms: C_7  and  C_8
REMARK    3  A    between atoms: C_7  and  N_9
REMARK                            x       y       z     vdW  Elec       q    Type
REMARK                         _______ _______ _______ _____ _____    ______ ____
ROOT
ATOM      1  C   UNL     1       1.091   0.226   0.374  0.00  0.00    +0.000 C 
ATOM      2  C   UNL     1       2.596   0.159   0.063  0.00  0.00    +0.000 C 
ATOM      3  C   UNL     1       2.900   1.058  -1.159  0.00  0.00    +0.000 C 
ATOM      4  C   UNL     1       2.580   0.173  -2.336  0.00  0.00    +0.000 C 
ATOM      5  C   UNL     1       3.602  -0.704  -2.993  0.00  0.00    +0.000 C 
ATOM      6  C   UNL     1       2.735  -1.261  -1.888  0.00  0.00    +0.000 C 
ATOM      7  C   UNL     1       3.096  -1.245  -0.412  0.00  0.00    +0.000 C 
ATOM      8  C   UNL     1       4.608  -1.401  -0.181  0.00  0.00    +0.000 C 
ENDROOT
BRANCH   7   9
ATOM      9  N   UNL     1       2.457  -2.371   0.260  0.00  0.00    +0.000 NA
ATOM     10  H   UNL     1       1.446  -2.321   0.147  0.00  0.00    +0.000 HD
ATOM     11  H   UNL     1       2.627  -2.307   1.262  0.00  0.00    +0.000 HD
ENDBRANCH   7   9
TORSDOF 1
