REMARK  Name = ligand_9134734
REMARK  3 active torsions:
REMARK  status: ('A' for Active; 'I' for Inactive)
REMARK    1  A    between atoms: C_1  and  C_2
REMARK    2  A    between atoms: C_2  and  N_7
REMARK    3  A    between atoms: N_7  and  N_8
REMARK                            x       y       z     vdW  Elec       q    Type
REMARK                         _______ _______ _______ _____ _____    ______ ____
ROOT
ATOM      1  C   UNL     1       0.943   0.047  -0.029  0.00  0.00    +0.000 C 
ATOM      2  C   UNL     1       2.470  -0.018   0.022  0.00  0.00    +0.000 C 
ATOM      3  C   UNL     1       2.994  -1.211   0.808  0.00  0.00    +0.000 C 
ATOM      4  C   UNL     1       4.322  -0.733   1.367  0.00  0.00    +0.000 C 
ATOM      5  O   UNL     1       4.308   0.702   1.370  0.00  0.00    +0.000 OA
ATOM      6  C   UNL     1       3.045   1.143   0.844  0.00  0.00    +0.000 C 
ENDROOT
BRANCH   2   7
ATOM      7  N   UNL     1       3.027   0.025  -1.349  0.00  0.00    +0.000 N 
ATOM      8  H   UNL     1       4.043   0.148  -1.291  0.00  0.00    +0.000 HD
BRANCH   7   9
ATOM      9  N   UNL     1       2.685  -0.991  -2.180  0.00  0.00    +0.000 NA
ATOM     10  C   UNL     1       3.085  -0.819  -3.397  0.00  0.00    +0.000 C 
ENDBRANCH   7   9
ENDBRANCH   2   7
TORSDOF 2
