REMARK  Name = ligand_9134120
REMARK  1 active torsions:
REMARK  status: ('A' for Active; 'I' for Inactive)
REMARK    1  A    between atoms: C_1  and  C_2
REMARK                            x       y       z     vdW  Elec       q    Type
REMARK                         _______ _______ _______ _____ _____    ______ ____
ROOT
ATOM      1  C   UNL     1       0.976  -0.175   0.058  0.00  0.00    +0.000 C 
ATOM      2  C   UNL     1       2.456   0.130   0.251  0.00  0.00    +0.000 C 
ATOM      3  C   UNL     1       2.901   1.250  -0.677  0.00  0.00    +0.000 C 
ATOM      4  C   UNL     1       4.404   1.328  -0.598  0.00  0.00    +0.000 C 
ATOM      5  N   UNL     1       4.950   0.051  -0.991  0.00  0.00    +0.000 NA
ATOM      6  N   UNL     1       6.128   0.046  -1.785  0.00  0.00    +0.000 N 
ATOM      7  C   UNL     1       4.383  -1.162  -0.601  0.00  0.00    +0.000 C 
ATOM      8  O   UNL     1       4.911  -2.244  -0.839  0.00  0.00    +0.000 OA
ATOM      9  O   UNL     1       3.181  -1.099   0.041  0.00  0.00    +0.000 OA
ATOM     10  H   UNL     1       6.863  -0.401  -1.227  0.00  0.00    +0.000 HD
ATOM     11  H   UNL     1       5.963  -0.639  -2.535  0.00  0.00    +0.000 HD
ENDROOT
TORSDOF 0
