REMARK  Name = ligand_9134034
REMARK  4 active torsions:
REMARK  status: ('A' for Active; 'I' for Inactive)
REMARK    1  A    between atoms: C_1  and  C_2
REMARK    2  A    between atoms: C_3  and  C_4
REMARK    3  A    between atoms: C_4  and  N_5
REMARK    4  A    between atoms: N_8  and  O_9
REMARK                            x       y       z     vdW  Elec       q    Type
REMARK                         _______ _______ _______ _____ _____    ______ ____
ROOT
ATOM      1  C   UNL     1       0.810  -0.114  -0.049  0.00  0.00    +0.000 C 
ATOM      2  C   UNL     1       2.281   0.031  -0.017  0.00  0.00    +0.000 A 
ATOM      3  C   UNL     1       3.110   1.142  -0.013  0.00  0.00    +0.000 A 
ATOM      4  N   UNL     1       4.439   0.754   0.002  0.00  0.00    +0.000 NA
ATOM      5  C   UNL     1       4.415  -0.561   0.031  0.00  0.00    +0.000 A 
ATOM      6  N   UNL     1       3.136  -1.030   0.018  0.00  0.00    +0.000 N 
ENDROOT
BRANCH   6   7
ATOM      7  O   UNL     1       2.741  -2.362   0.072  0.00  0.00    +0.000 OA
ATOM      8  H   UNL     1       3.569  -2.809  -0.161  0.00  0.00    +0.000 HD
ENDBRANCH   6   7
BRANCH   3   9
ATOM      9  C   UNL     1       2.747   2.590  -0.029  0.00  0.00    +0.000 C 
BRANCH   9  10
ATOM     10  N   UNL     1       2.620   3.027  -1.417  0.00  0.00    +0.000 NA
ATOM     11  H   UNL     1       3.496   2.793  -1.889  0.00  0.00    +0.000 HD
ATOM     12  H   UNL     1       2.557   4.043  -1.432  0.00  0.00    +0.000 HD
ENDBRANCH   9  10
ENDBRANCH   3   9
TORSDOF 3
