REMARK  Name = ligand_9134778
REMARK  3 active torsions:
REMARK  status: ('A' for Active; 'I' for Inactive)
REMARK    1  A    between atoms: C_1  and  C_2
REMARK    2  A    between atoms: C_4  and  O_5
REMARK    3  A    between atoms: N_8  and  C_9
REMARK                            x       y       z     vdW  Elec       q    Type
REMARK                         _______ _______ _______ _____ _____    ______ ____
ROOT
ATOM      1  C   UNL     1       0.984   0.083   0.242  0.00  0.00    +0.000 C 
ATOM      2  C   UNL     1       2.472   0.200  -0.075  0.00  0.00    +0.000 C 
ATOM      3  C   UNL     1       2.769   1.371  -1.029  0.00  0.00    +0.000 C 
ATOM      4  C   UNL     1       2.582   0.772  -2.430  0.00  0.00    +0.000 C 
ATOM      5  C   UNL     1       3.114  -0.628  -2.283  0.00  0.00    +0.000 C 
ATOM      6  C   UNL     1       3.026  -0.997  -0.818  0.00  0.00    +0.000 C 
ATOM      7  N   UNL     1       2.256  -1.712  -1.825  0.00  0.00    +0.000 NA
ATOM      8  C   UNL     1       2.798  -3.033  -2.130  0.00  0.00    +0.000 C 
ENDROOT
BRANCH   4   9
ATOM      9  O   UNL     1       3.308   1.505  -3.405  0.00  0.00    +0.000 OA
ATOM     10  H   UNL     1       4.230   1.565  -3.113  0.00  0.00    +0.000 HD
ENDBRANCH   4   9
TORSDOF 1
