REMARK  Name = ligand_9134131
REMARK  3 active torsions:
REMARK  status: ('A' for Active; 'I' for Inactive)
REMARK    1  A    between atoms: C_1  and  C_2
REMARK    2  A    between atoms: C_3  and  C_4
REMARK    3  A    between atoms: N_5  and  N_6
REMARK                            x       y       z     vdW  Elec       q    Type
REMARK                         _______ _______ _______ _____ _____    ______ ____
ROOT
ATOM      1  C   UNL     1       1.072  -0.081  -0.058  0.00  0.00    +0.000 C 
ATOM      2  C   UNL     1       2.537   0.038   0.161  0.00  0.00    +0.000 C 
ATOM      3  C   UNL     1       3.435   0.693  -0.914  0.00  0.00    +0.000 C 
ATOM      4  N   UNL     1       3.489  -0.678  -0.583  0.00  0.00    +0.000 N 
ATOM      5  C   UNL     1       3.306  -1.714  -1.452  0.00  0.00    +0.000 C 
ATOM      6  O   UNL     1       3.646  -1.722  -2.628  0.00  0.00    +0.000 OA
ENDROOT
BRANCH   3   7
ATOM      7  C   UNL     1       4.587   1.516  -0.514  0.00  0.00    +0.000 C 
ATOM      8  N   UNL     1       4.379   2.506   0.291  0.00  0.00    +0.000 NA
BRANCH   8   9
ATOM      9  N   UNL     1       5.508   3.153   0.653  0.00  0.00    +0.000 N 
ATOM     10  H   UNL     1       5.276   4.010   1.159  0.00  0.00    +0.000 HD
ATOM     11  H   UNL     1       6.094   3.423  -0.139  0.00  0.00    +0.000 HD
ENDBRANCH   8   9
ENDBRANCH   3   7
TORSDOF 2
