REMARK  Name = ligand_9135464
REMARK  2 active torsions:
REMARK  status: ('A' for Active; 'I' for Inactive)
REMARK    1  A    between atoms: C_1  and  C_2
REMARK    2  A    between atoms: C_6  and  C_8
REMARK                            x       y       z     vdW  Elec       q    Type
REMARK                         _______ _______ _______ _____ _____    ______ ____
ROOT
ATOM      1  C   UNL     1       1.180   0.015  -0.073  0.00  0.00    +0.000 C 
ATOM      2  C   UNL     1       2.654  -0.122   0.104  0.00  0.00    +0.000 C 
ATOM      3  C   UNL     1       3.390   0.607   0.949  0.00  0.00    +0.000 C 
ATOM      4  C   UNL     1       4.833   0.267   1.127  0.00  0.00    +0.000 C 
ATOM      5  O   UNL     1       5.448  -0.147  -0.094  0.00  0.00    +0.000 OA
ATOM      6  C   UNL     1       4.572  -0.734  -1.053  0.00  0.00    +0.000 C 
ATOM      7  O   UNL     1       3.257  -1.110  -0.639  0.00  0.00    +0.000 OA
ENDROOT
BRANCH   6   8
ATOM      8  C   UNL     1       4.995  -0.774   2.170  0.00  0.00    +0.000 C 
ATOM      9  N   UNL     1       5.118  -1.585   2.993  0.00  0.00    +0.000 NA
ENDBRANCH   6   8
TORSDOF 1
