REMARK  Name = ligand_9136743
REMARK  5 active torsions:
REMARK  status: ('A' for Active; 'I' for Inactive)
REMARK    1  A    between atoms: C_1  and  C_2
REMARK    2  A    between atoms: C_3  and  N_4
REMARK    3  A    between atoms: C_5  and  C_6
REMARK    4  A    between atoms: C_5  and  C_8
REMARK    5  A    between atoms: C_6  and  O_7
REMARK                            x       y       z     vdW  Elec       q    Type
REMARK                         _______ _______ _______ _____ _____    ______ ____
ROOT
ATOM      1  C   UNL     1       1.058  -0.067  -0.083  0.00  0.00    +0.000 C 
ATOM      2  C   UNL     1       2.541  -0.223  -0.141  0.00  0.00    +0.000 C 
ATOM      3  C   UNL     1       3.342   0.556  -1.151  0.00  0.00    +0.000 C 
ATOM      4  C   UNL     1       3.244  -0.965  -1.275  0.00  0.00    +0.000 C 
ENDROOT
BRANCH   3   5
ATOM      5  N   UNL     1       4.557   1.248  -0.689  0.00  0.00    +0.000 NA
ATOM      6  H   UNL     1       4.757   1.014   0.283  0.00  0.00    +0.000 HD
ATOM      7  H   UNL     1       4.380   2.256  -0.664  0.00  0.00    +0.000 HD
ENDBRANCH   3   5
BRANCH   4   8
ATOM      8  C   UNL     1       2.423  -1.480  -2.354  0.00  0.00    +0.000 C 
ATOM      9  C   UNL     1       1.757  -1.969  -3.221  0.00  0.00    +0.000 C 
ENDBRANCH   4   8
BRANCH   4  10
ATOM     10  C   UNL     1       4.453  -1.838  -0.996  0.00  0.00    +0.000 C 
BRANCH  10  11
ATOM     11  O   UNL     1       4.961  -1.683   0.328  0.00  0.00    +0.000 OA
ATOM     12  H   UNL     1       5.506  -0.881   0.295  0.00  0.00    +0.000 HD
ENDBRANCH  10  11
ENDBRANCH   4  10
TORSDOF 4
