REMARK  Name = ligand_9136813
REMARK  4 active torsions:
REMARK  status: ('A' for Active; 'I' for Inactive)
REMARK    1  A    between atoms: C_1  and  C_2
REMARK    2  A    between atoms: C_2  and  C_3
REMARK    3  A    between atoms: C_5  and  C_6
REMARK    4  A    between atoms: N_8  and  O_9
REMARK                            x       y       z     vdW  Elec       q    Type
REMARK                         _______ _______ _______ _____ _____    ______ ____
ROOT
ATOM      1  C   UNL     1      -1.066   1.181  -0.033  0.00  0.00    +0.000 C 
ATOM      2  C   UNL     1      -0.205  -0.052   0.046  0.00  0.00    +0.000 C 
ATOM      3  C   UNL     1      -0.965  -1.354   0.084  0.00  0.00    +0.000 C 
ATOM      4  N   UNL     1       1.088  -0.059  -0.654  0.00  0.00    +0.000 NA
ATOM      5  C   UNL     1       1.102   0.075   0.815  0.00  0.00    +0.000 C 
ATOM      6  H   UNL     1       1.276   0.846  -1.090  0.00  0.00    +0.000 HD
ENDROOT
BRANCH   5   7
ATOM      7  C   UNL     1       1.663  -1.060   1.599  0.00  0.00    +0.000 C 
ATOM      8  O   UNL     1       1.536  -1.107   2.817  0.00  0.00    +0.000 OA
ATOM      9  N   UNL     1       2.311  -2.023   0.869  0.00  0.00    +0.000 N 
ATOM     10  H   UNL     1       2.194  -2.066  -0.140  0.00  0.00    +0.000 HD
BRANCH   9  11
ATOM     11  O   UNL     1       2.711  -3.189   1.556  0.00  0.00    +0.000 OA
ATOM     12  H   UNL     1       2.493  -2.968   2.487  0.00  0.00    +0.000 HD
ENDBRANCH   9  11
ENDBRANCH   5   7
TORSDOF 2
