REMARK  Name = ligand_913611
REMARK  2 active torsions:
REMARK  status: ('A' for Active; 'I' for Inactive)
REMARK    1  A    between atoms: C_1  and  C_2
REMARK    2  A    between atoms: C_6  and  C_7
REMARK                            x       y       z     vdW  Elec       q    Type
REMARK                         _______ _______ _______ _____ _____    ______ ____
ROOT
ATOM      1  C   UNL     1       1.067  -0.016   0.372  0.00  0.00    +0.000 C 
ATOM      2  C   UNL     1       2.516   0.008  -0.128  0.00  0.00    +0.000 C 
ATOM      3  C   UNL     1       2.861   1.286  -0.913  0.00  0.00    +0.000 C 
ATOM      4  C   UNL     1       2.865   0.991  -2.410  0.00  0.00    +0.000 C 
ATOM      5  C   UNL     1       3.911  -0.111  -2.755  0.00  0.00    +0.000 C 
ATOM      6  C   UNL     1       2.800  -1.122  -2.335  0.00  0.00    +0.000 C 
ATOM      7  C   UNL     1       2.782  -2.482  -2.990  0.00  0.00    +0.000 C 
ATOM      8  C   UNL     1       1.796  -0.049  -2.847  0.00  0.00    +0.000 C 
ATOM      9  N   UNL     1       2.819  -1.231  -0.858  0.00  0.00    +0.000 NA
ATOM     10  H   UNL     1       3.702  -1.606  -0.510  0.00  0.00    +0.000 HD
ENDROOT
TORSDOF 0
