REMARK  Name = ligand_9136798
REMARK  4 active torsions:
REMARK  status: ('A' for Active; 'I' for Inactive)
REMARK    1  A    between atoms: C_1  and  C_2
REMARK    2  A    between atoms: C_5  and  C_6
REMARK    3  A    between atoms: C_5  and  C_8
REMARK    4  A    between atoms: C_6  and  O_7
REMARK                            x       y       z     vdW  Elec       q    Type
REMARK                         _______ _______ _______ _____ _____    ______ ____
ROOT
ATOM      1  C   UNL     1       0.794  -0.075   0.036  0.00  0.00    +0.000 C 
ATOM      2  C   UNL     1       2.303   0.043   0.079  0.00  0.00    +0.000 C 
ATOM      3  C   UNL     1       3.068  -0.997   0.922  0.00  0.00    +0.000 C 
ATOM      4  N   UNL     1       4.039   0.060   1.299  0.00  0.00    +0.000 NA
ATOM      5  C   UNL     1       2.968   1.094   1.029  0.00  0.00    +0.000 C 
ATOM      6  H   UNL     1       4.798   0.124   0.615  0.00  0.00    +0.000 HD
ENDROOT
BRANCH   5   7
ATOM      7  C   UNL     1       2.184   1.485   2.345  0.00  0.00    +0.000 C 
ATOM      8  O   UNL     1       1.240   2.273   2.437  0.00  0.00    +0.000 OA
ENDBRANCH   5   7
BRANCH   5   9
ATOM      9  C   UNL     1       3.535   2.347   0.350  0.00  0.00    +0.000 C 
BRANCH   9  10
ATOM     10  O   UNL     1       4.308   1.991  -0.801  0.00  0.00    +0.000 OA
ATOM     11  H   UNL     1       5.244   2.134  -0.580  0.00  0.00    +0.000 HD
ENDBRANCH   9  10
ENDBRANCH   5   9
TORSDOF 3
