REMARK  Name = ligand_9137258
REMARK  3 active torsions:
REMARK  status: ('A' for Active; 'I' for Inactive)
REMARK    1  A    between atoms: C_1  and  C_2
REMARK    2  A    between atoms: C_6  and  O_7
REMARK    3  A    between atoms: C_6  and  C_8
REMARK                            x       y       z     vdW  Elec       q    Type
REMARK                         _______ _______ _______ _____ _____    ______ ____
ROOT
ATOM      1  C   UNL     1       0.993   0.036  -0.208  0.00  0.00    +0.000 C 
ATOM      2  C   UNL     1       2.505   0.099  -0.019  0.00  0.00    +0.000 C 
ATOM      3  C   UNL     1       3.079  -1.155   0.637  0.00  0.00    +0.000 C 
ATOM      4  N   UNL     1       4.316  -0.747   1.312  0.00  0.00    +0.000 NA
ATOM      5  C   UNL     1       4.424   0.716   1.229  0.00  0.00    +0.000 C 
ATOM      6  C   UNL     1       3.030   1.243   0.860  0.00  0.00    +0.000 C 
ATOM      7  H   UNL     1       5.134  -1.202   0.906  0.00  0.00    +0.000 HD
ENDROOT
BRANCH   6   8
ATOM      8  O   UNL     1       3.098   2.459   0.113  0.00  0.00    +0.000 OA
ATOM      9  H   UNL     1       3.627   2.297  -0.687  0.00  0.00    +0.000 HD
ENDBRANCH   6   8
BRANCH   6  10
ATOM     10  C   UNL     1       2.183   1.435   2.108  0.00  0.00    +0.000 C 
ATOM     11  N   UNL     1       1.480   1.593   3.142  0.00  0.00    +0.000 NA
ENDBRANCH   6  10
TORSDOF 2
