REMARK  Name = ligand_9137839
REMARK  2 active torsions:
REMARK  status: ('A' for Active; 'I' for Inactive)
REMARK    1  A    between atoms: C_1  and  C_2
REMARK    2  A    between atoms: C_6  and  O_7
REMARK                            x       y       z     vdW  Elec       q    Type
REMARK                         _______ _______ _______ _____ _____    ______ ____
ROOT
ATOM      1  C   UNL     1       0.857   0.064  -0.024  0.00  0.00    +0.000 C 
ATOM      2  C   UNL     1       2.394   0.054  -0.037  0.00  0.00    +0.000 C 
ATOM      3  C   UNL     1       2.862  -1.052   0.940  0.00  0.00    +0.000 C 
ATOM      4  N   UNL     1       4.263  -1.447   0.932  0.00  0.00    +0.000 NA
ATOM      5  C   UNL     1       5.258  -0.376   0.785  0.00  0.00    +0.000 C 
ATOM      6  C   UNL     1       5.033   0.948   1.546  0.00  0.00    +0.000 C 
ATOM      7  C   UNL     1       3.935   1.818   1.016  0.00  0.00    +0.000 C 
ATOM      8  C   UNL     1       2.875   1.455   0.283  0.00  0.00    +0.000 C 
ATOM      9  H   UNL     1       4.416  -2.120   0.177  0.00  0.00    +0.000 HD
ENDROOT
BRANCH   6  10
ATOM     10  O   UNL     1       4.801   0.747   2.941  0.00  0.00    +0.000 OA
ATOM     11  H   UNL     1       4.115   0.064   3.000  0.00  0.00    +0.000 HD
ENDBRANCH   6  10
TORSDOF 1
