REMARK  Name = ligand_9137064
REMARK  0 active torsions:
REMARK  status: ('A' for Active; 'I' for Inactive)
REMARK                            x       y       z     vdW  Elec       q    Type
REMARK                         _______ _______ _______ _____ _____    ______ ____
ROOT
ATOM      1  C   UNL     1       1.112  -0.123  -0.104  0.00  0.00    +0.000 C 
ATOM      2  C   UNL     1       2.442  -0.074   0.004  0.00  0.00    +0.000 C 
ATOM      3  C   UNL     1       3.382   1.150   0.034  0.00  0.00    +0.000 C 
ATOM      4  N   UNL     1       4.732   0.509   0.190  0.00  0.00    +0.000 N 
ATOM      5  C   UNL     1       4.565  -0.825   0.291  0.00  0.00    +0.000 A 
ATOM      6  C   UNL     1       3.260  -1.203   0.166  0.00  0.00    +0.000 A 
ATOM      7  O   UNL     1       3.197  -2.545   0.325  0.00  0.00    +0.000 OA
ATOM      8  C   UNL     1       4.521  -2.861   0.556  0.00  0.00    +0.000 A 
ATOM      9  N   UNL     1       5.377  -1.848   0.582  0.00  0.00    +0.000 NA
ATOM     10  H   UNL     1       5.421   0.979   0.766  0.00  0.00    +0.000 HD
ENDROOT
TORSDOF 0
