REMARK  Name = ligand_9137000
REMARK  2 active torsions:
REMARK  status: ('A' for Active; 'I' for Inactive)
REMARK    1  A    between atoms: C_1  and  C_2
REMARK    2  A    between atoms: C_3  and  N_4
REMARK                            x       y       z     vdW  Elec       q    Type
REMARK                         _______ _______ _______ _____ _____    ______ ____
ROOT
ATOM      1  C   UNL     1       0.970  -0.150  -0.258  0.00  0.00    +0.000 C 
ATOM      2  C   UNL     1       2.409   0.094  -0.024  0.00  0.00    +0.000 C 
ATOM      3  C   UNL     1       3.154   1.211  -0.056  0.00  0.00    +0.000 C 
ATOM      4  C   UNL     1       4.553   0.973   0.333  0.00  0.00    +0.000 C 
ATOM      5  C   UNL     1       5.420   0.044  -0.455  0.00  0.00    +0.000 C 
ATOM      6  N   UNL     1       4.605  -0.442   0.606  0.00  0.00    +0.000 N 
ATOM      7  C   UNL     1       3.334  -0.992   0.407  0.00  0.00    +0.000 C 
ATOM      8  O   UNL     1       2.986  -2.142   0.621  0.00  0.00    +0.000 OA
ENDROOT
BRANCH   3   9
ATOM      9  N   UNL     1       2.748   2.479  -0.382  0.00  0.00    +0.000 N 
ATOM     10  H   UNL     1       1.743   2.625  -0.320  0.00  0.00    +0.000 HD
ATOM     11  H   UNL     1       3.278   3.218   0.073  0.00  0.00    +0.000 HD
ENDBRANCH   3   9
TORSDOF 1
