REMARK  Name = ligand_9137866
REMARK  1 active torsions:
REMARK  status: ('A' for Active; 'I' for Inactive)
REMARK    1  A    between atoms: C_1  and  C_2
REMARK                            x       y       z     vdW  Elec       q    Type
REMARK                         _______ _______ _______ _____ _____    ______ ____
ROOT
ATOM      1  C   UNL     1       1.047   0.016   0.046  0.00  0.00    +0.000 C 
ATOM      2  C   UNL     1       2.572   0.067   0.086  0.00  0.00    +0.000 C 
ATOM      3  C   UNL     1       3.088   1.274  -0.732  0.00  0.00    +0.000 C 
ATOM      4  N   UNL     1       4.501   1.571  -0.463  0.00  0.00    +0.000 NA
ATOM      5  C   UNL     1       5.433   0.863  -1.349  0.00  0.00    +0.000 C 
ATOM      6  C   UNL     1       5.138  -0.613  -1.540  0.00  0.00    +0.000 C 
ATOM      7  O   UNL     1       5.513  -1.204  -2.559  0.00  0.00    +0.000 OA
ATOM      8  C   UNL     1       4.439  -1.353  -0.412  0.00  0.00    +0.000 C 
ATOM      9  O   UNL     1       3.031  -1.187  -0.427  0.00  0.00    +0.000 OA
ATOM     10  H   UNL     1       4.725   1.399   0.516  0.00  0.00    +0.000 HD
ENDROOT
TORSDOF 0
