REMARK  Name = ligand_9138983
REMARK  2 active torsions:
REMARK  status: ('A' for Active; 'I' for Inactive)
REMARK    1  A    between atoms: C_1  and  C_2
REMARK    2  A    between atoms: C_2  and  C_8
REMARK                            x       y       z     vdW  Elec       q    Type
REMARK                         _______ _______ _______ _____ _____    ______ ____
ROOT
ATOM      1  C   UNL     1       0.977   0.069  -0.019  0.00  0.00    +0.000 C 
ATOM      2  C   UNL     1       2.499   0.018  -0.100  0.00  0.00    +0.000 C 
ATOM      3  C   UNL     1       3.080  -1.214   0.602  0.00  0.00    +0.000 C 
ATOM      4  N   UNL     1       4.334  -0.774   1.246  0.00  0.00    +0.000 NA
ATOM      5  N   UNL     1       4.220   0.617   1.339  0.00  0.00    +0.000 N 
ATOM      6  C   UNL     1       3.128   1.138   0.678  0.00  0.00    +0.000 C 
ATOM      7  O   UNL     1       2.788   2.309   0.670  0.00  0.00    +0.000 OA
ATOM      8  H   UNL     1       5.112  -0.988   0.610  0.00  0.00    +0.000 HD
ATOM      9  H   UNL     1       4.757   1.178   1.997  0.00  0.00    +0.000 HD
ENDROOT
BRANCH   2  10
ATOM     10  C   UNL     1       2.910   0.117  -1.551  0.00  0.00    +0.000 C 
ATOM     11  O   UNL     1       3.514  -0.758  -2.165  0.00  0.00    +0.000 OA
ENDBRANCH   2  10
TORSDOF 1
