REMARK  Name = ligand_9138751
REMARK  1 active torsions:
REMARK  status: ('A' for Active; 'I' for Inactive)
REMARK    1  A    between atoms: C_1  and  C_2
REMARK                            x       y       z     vdW  Elec       q    Type
REMARK                         _______ _______ _______ _____ _____    ______ ____
ROOT
ATOM      1  C   UNL     1       0.931  -0.069   0.018  0.00  0.00    +0.000 C 
ATOM      2  C   UNL     1       2.400  -0.114   0.019  0.00  0.00    +0.000 A 
ATOM      3  C   UNL     1       3.363   0.882   0.021  0.00  0.00    +0.000 A 
ATOM      4  N   UNL     1       4.625   0.316   0.022  0.00  0.00    +0.000 N 
ATOM      5  C   UNL     1       4.471  -1.046   0.021  0.00  0.00    +0.000 A 
ATOM      6  C   UNL     1       3.147  -1.302   0.019  0.00  0.00    +0.000 A 
ATOM      7  O   UNL     1       2.912  -2.639   0.018  0.00  0.00    +0.000 OA
ATOM      8  C   UNL     1       4.155  -3.201   0.020  0.00  0.00    +0.000 A 
ATOM      9  C   UNL     1       5.171  -2.270   0.022  0.00  0.00    +0.000 A 
ATOM     10  H   UNL     1       5.520   0.788   0.024  0.00  0.00    +0.000 HD
ENDROOT
TORSDOF 0
