REMARK  Name = ligand_9138328
REMARK  2 active torsions:
REMARK  status: ('A' for Active; 'I' for Inactive)
REMARK    1  A    between atoms: C_1  and  C_2
REMARK    2  A    between atoms: N_6  and  O_7
REMARK                            x       y       z     vdW  Elec       q    Type
REMARK                         _______ _______ _______ _____ _____    ______ ____
ROOT
ATOM      1  C   UNL     1       1.072  -0.094  -0.045  0.00  0.00    +0.000 C 
ATOM      2  C   UNL     1       2.566  -0.030  -0.052  0.00  0.00    +0.000 C 
ATOM      3  C   UNL     1       3.255   1.117   0.005  0.00  0.00    +0.000 C 
ATOM      4  N   UNL     1       4.617   1.098  -0.013  0.00  0.00    +0.000 N 
ATOM      5  C   UNL     1       5.306  -0.061  -0.242  0.00  0.00    +0.000 C 
ATOM      6  N   UNL     1       6.658   0.133  -0.414  0.00  0.00    +0.000 N 
ATOM      7  N   UNL     1       4.776  -1.239  -0.330  0.00  0.00    +0.000 NA
ATOM      8  C   UNL     1       3.315  -1.340  -0.126  0.00  0.00    +0.000 C 
ATOM      9  H   UNL     1       5.086   1.981  -0.169  0.00  0.00    +0.000 HD
ATOM     10  H   UNL     1       7.075   0.802   0.224  0.00  0.00    +0.000 HD
ENDROOT
BRANCH   6  11
ATOM     11  O   UNL     1       7.376  -1.076  -0.452  0.00  0.00    +0.000 OA
ATOM     12  H   UNL     1       6.674  -1.734  -0.669  0.00  0.00    +0.000 HD
ENDBRANCH   6  11
TORSDOF 1
