REMARK  Name = ligand_9138528
REMARK  0 active torsions:
REMARK  status: ('A' for Active; 'I' for Inactive)
REMARK                            x       y       z     vdW  Elec       q    Type
REMARK                         _______ _______ _______ _____ _____    ______ ____
ROOT
ATOM      1  C   UNL     1       1.072   0.052  -0.155  0.00  0.00    +0.000 C 
ATOM      2  C   UNL     1       2.407  -0.107  -0.107  0.00  0.00    +0.000 C 
ATOM      3  C   UNL     1       3.355   1.050  -0.081  0.00  0.00    +0.000 C 
ATOM      4  N   UNL     1       4.180   1.135  -1.266  0.00  0.00    +0.000 N 
ATOM      5  C   UNL     1       5.096   0.199  -1.649  0.00  0.00    +0.000 C 
ATOM      6  O   UNL     1       6.227   0.546  -1.976  0.00  0.00    +0.000 OA
ATOM      7  C   UNL     1       4.658  -1.191  -1.877  0.00  0.00    +0.000 C 
ATOM      8  C   UNL     1       3.770  -1.906  -1.172  0.00  0.00    +0.000 C 
ATOM      9  C   UNL     1       3.033  -1.463   0.047  0.00  0.00    +0.000 C 
ATOM     10  H   UNL     1       4.624   2.044  -1.342  0.00  0.00    +0.000 HD
ENDROOT
TORSDOF 0
