REMARK  Name = ligand_9139879
REMARK  3 active torsions:
REMARK  status: ('A' for Active; 'I' for Inactive)
REMARK    1  A    between atoms: C_1  and  C_2
REMARK    2  A    between atoms: C_2  and  C_3
REMARK    3  A    between atoms: C_3  and  C_4
REMARK                            x       y       z     vdW  Elec       q    Type
REMARK                         _______ _______ _______ _____ _____    ______ ____
ROOT
ATOM      1  C   UNL     1       2.932   0.103  -1.522  0.00  0.00    +0.000 C 
ENDROOT
BRANCH   1   2
ATOM      2  C   UNL     1       4.409   0.109  -1.878  0.00  0.00    +0.000 C 
ATOM      3  N   UNL     1       5.405   0.173  -0.966  0.00  0.00    +0.000 N 
ATOM      4  N   UNL     1       4.761   0.056  -3.124  0.00  0.00    +0.000 NA
ATOM      5  H   UNL     1       5.244  -0.070   0.008  0.00  0.00    +0.000 HD
ATOM      6  H   UNL     1       6.321  -0.065  -1.328  0.00  0.00    +0.000 HD
ATOM      7  H   UNL     1       3.937   0.035  -3.734  0.00  0.00    +0.000 HD
ENDBRANCH   1   2
BRANCH   1   9
ATOM      8  C   UNL     1       0.935   0.082   0.020  0.00  0.00    +0.000 C 
ATOM      9  C   UNL     1       2.461   0.066  -0.063  0.00  0.00    +0.000 C 
ATOM     10  C   UNL     1       3.094  -1.004   0.849  0.00  0.00    +0.000 C 
ATOM     11  O   UNL     1       3.977  -0.007   1.437  0.00  0.00    +0.000 OA
ATOM     12  C   UNL     1       3.135   1.057   0.908  0.00  0.00    +0.000 C 
ENDBRANCH   1   9
TORSDOF 2
