REMARK  Name = ligand_9139374
REMARK  1 active torsions:
REMARK  status: ('A' for Active; 'I' for Inactive)
REMARK    1  A    between atoms: C_1  and  C_2
REMARK                            x       y       z     vdW  Elec       q    Type
REMARK                         _______ _______ _______ _____ _____    ______ ____
ROOT
ATOM      1  C   UNL     1       0.980   0.055   0.379  0.00  0.00    +0.000 C 
ATOM      2  C   UNL     1       2.471  -0.019   0.074  0.00  0.00    +0.000 C 
ATOM      3  C   UNL     1       2.811   0.962  -1.030  0.00  0.00    +0.000 C 
ATOM      4  N   UNL     1       3.254   2.151  -0.774  0.00  0.00    +0.000 NA
ATOM      5  N   UNL     1       2.605   0.565  -2.333  0.00  0.00    +0.000 N 
ATOM      6  N   UNL     1       3.127  -0.712  -2.680  0.00  0.00    +0.000 NA
ATOM      7  C   UNL     1       2.564  -1.759  -1.814  0.00  0.00    +0.000 C 
ATOM      8  C   UNL     1       2.833  -1.422  -0.359  0.00  0.00    +0.000 C 
ATOM      9  O   UNL     1       3.220  -2.268   0.449  0.00  0.00    +0.000 OA
ATOM     10  H   UNL     1       3.356   2.297   0.237  0.00  0.00    +0.000 HD
ATOM     11  H   UNL     1       2.865   1.318  -2.978  0.00  0.00    +0.000 HD
ATOM     12  H   UNL     1       4.150  -0.714  -2.599  0.00  0.00    +0.000 HD
ENDROOT
TORSDOF 0
