REMARK  Name = ligand_9139410
REMARK  1 active torsions:
REMARK  status: ('A' for Active; 'I' for Inactive)
REMARK    1  A    between atoms: C_1  and  C_2
REMARK                            x       y       z     vdW  Elec       q    Type
REMARK                         _______ _______ _______ _____ _____    ______ ____
ROOT
ATOM      1  C   UNL     1       1.343  -0.095   0.246  0.00  0.00    +0.000 C 
ATOM      2  C   UNL     1       2.536   0.426  -0.552  0.00  0.00    +0.000 C 
ATOM      3  C   UNL     1       3.309  -0.757  -1.016  0.00  0.00    +0.000 C 
ATOM      4  N   UNL     1       3.104  -1.089  -2.251  0.00  0.00    +0.000 NA
ATOM      5  O   UNL     1       2.164  -0.159  -2.791  0.00  0.00    +0.000 OA
ATOM      6  C   UNL     1       2.125   0.988  -1.897  0.00  0.00    +0.000 C 
ATOM      7  C   UNL     1       2.879   2.224  -2.448  0.00  0.00    +0.000 C 
ATOM      8  O   UNL     1       1.784   3.095  -2.065  0.00  0.00    +0.000 OA
ATOM      9  C   UNL     1       0.913   1.937  -1.957  0.00  0.00    +0.000 C 
ENDROOT
TORSDOF 0
