REMARK  Name = ligand_9139781
REMARK  2 active torsions:
REMARK  status: ('A' for Active; 'I' for Inactive)
REMARK    1  A    between atoms: C_1  and  C_2
REMARK    2  A    between atoms: C_2  and  C_5
REMARK                            x       y       z     vdW  Elec       q    Type
REMARK                         _______ _______ _______ _____ _____    ______ ____
ROOT
ATOM      1  C   UNL     1       2.331   0.146   1.715  0.00  0.00    +0.000 C 
ATOM      2  N   UNL     1       1.761   1.103   2.370  0.00  0.00    +0.000 NA
ATOM      3  N   UNL     1       3.081  -0.851   2.274  0.00  0.00    +0.000 N 
ATOM      4  C   UNL     1       3.396  -1.100   3.575  0.00  0.00    +0.000 C 
ATOM      5  N   UNL     1       3.016  -0.431   4.608  0.00  0.00    +0.000 NA
ATOM      6  H   UNL     1       1.253   1.733   1.742  0.00  0.00    +0.000 HD
ATOM      7  H   UNL     1       3.498  -1.484   1.597  0.00  0.00    +0.000 HD
ATOM      8  H   UNL     1       2.422   0.341   4.250  0.00  0.00    +0.000 HD
ENDROOT
BRANCH   1  10
ATOM      9  C   UNL     1       0.814  -0.081  -0.367  0.00  0.00    +0.000 C 
ATOM     10  C   UNL     1       2.179   0.098   0.230  0.00  0.00    +0.000 C 
ATOM     11  C   UNL     1       3.260   0.734  -0.622  0.00  0.00    +0.000 C 
ATOM     12  O   UNL     1       3.193  -0.685  -0.438  0.00  0.00    +0.000 OA
ENDBRANCH   1  10
TORSDOF 1
