REMARK  Name = ligand_9139624
REMARK  3 active torsions:
REMARK  status: ('A' for Active; 'I' for Inactive)
REMARK    1  A    between atoms: C_1  and  C_2
REMARK    2  A    between atoms: N_4  and  O_5
REMARK    3  A    between atoms: C_8  and  O_9
REMARK                            x       y       z     vdW  Elec       q    Type
REMARK                         _______ _______ _______ _____ _____    ______ ____
ROOT
ATOM      1  C   UNL     1       1.064  -0.066   0.058  0.00  0.00    +0.000 C 
ATOM      2  C   UNL     1       2.544  -0.074  -0.045  0.00  0.00    +0.000 C 
ATOM      3  C   UNL     1       3.354  -1.141  -0.149  0.00  0.00    +0.000 C 
ATOM      4  N   UNL     1       4.654  -0.736  -0.198  0.00  0.00    +0.000 N 
ATOM      5  C   UNL     1       4.766   0.631  -0.295  0.00  0.00    +0.000 C 
ATOM      6  N   UNL     1       5.803   1.353  -0.568  0.00  0.00    +0.000 NA
ATOM      7  C   UNL     1       3.342   1.227  -0.068  0.00  0.00    +0.000 C 
ATOM      8  H   UNL     1       6.583   0.695  -0.701  0.00  0.00    +0.000 HD
ENDROOT
BRANCH   4   9
ATOM      9  O   UNL     1       5.721  -1.535  -0.545  0.00  0.00    +0.000 OA
ATOM     10  H   UNL     1       5.780  -2.140   0.218  0.00  0.00    +0.000 HD
ENDBRANCH   4   9
BRANCH   7  11
ATOM     11  O   UNL     1       2.842   2.060  -1.085  0.00  0.00    +0.000 OA
ATOM     12  H   UNL     1       3.486   2.019  -1.813  0.00  0.00    +0.000 HD
ENDBRANCH   7  11
TORSDOF 2
