REMARK  Name = ligand_9139206
REMARK  2 active torsions:
REMARK  status: ('A' for Active; 'I' for Inactive)
REMARK    1  A    between atoms: C_1  and  C_2
REMARK    2  A    between atoms: N_4  and  N_5
REMARK                            x       y       z     vdW  Elec       q    Type
REMARK                         _______ _______ _______ _____ _____    ______ ____
ROOT
ATOM      1  C   UNL     1       1.016   0.093   0.246  0.00  0.00    +0.000 C 
ATOM      2  C   UNL     1       2.476   0.049  -0.086  0.00  0.00    +0.000 C 
ATOM      3  C   UNL     1       3.082  -1.056  -0.554  0.00  0.00    +0.000 C 
ATOM      4  N   UNL     1       4.401  -1.184  -0.951  0.00  0.00    +0.000 N 
ATOM      5  C   UNL     1       5.294  -0.140  -1.209  0.00  0.00    +0.000 C 
ATOM      6  N   UNL     1       5.187   1.153  -1.268  0.00  0.00    +0.000 NA
ATOM      7  O   UNL     1       3.862   1.627  -1.181  0.00  0.00    +0.000 OA
ATOM      8  C   UNL     1       3.250   1.326   0.074  0.00  0.00    +0.000 C 
ENDROOT
BRANCH   4   9
ATOM      9  N   UNL     1       4.915  -2.491  -1.141  0.00  0.00    +0.000 NA
ATOM     10  H   UNL     1       4.296  -3.186  -0.727  0.00  0.00    +0.000 HD
ATOM     11  H   UNL     1       5.791  -2.588  -0.619  0.00  0.00    +0.000 HD
ENDBRANCH   4   9
TORSDOF 1
