REMARK  Name = ligand_9139116
REMARK  4 active torsions:
REMARK  status: ('A' for Active; 'I' for Inactive)
REMARK    1  A    between atoms: C_1  and  C_2
REMARK    2  A    between atoms: N_4  and  C_5
REMARK    3  A    between atoms: C_5  and  C_6
REMARK    4  A    between atoms: C_6  and  O_7
REMARK                            x       y       z     vdW  Elec       q    Type
REMARK                         _______ _______ _______ _____ _____    ______ ____
ROOT
ATOM      1  C   UNL     1       0.873  -0.027  -0.055  0.00  0.00    +0.000 C 
ATOM      2  C   UNL     1       2.352   0.027  -0.052  0.00  0.00    +0.000 A 
ATOM      3  C   UNL     1       3.166   1.139  -0.057  0.00  0.00    +0.000 A 
ATOM      4  N   UNL     1       4.453   0.678  -0.042  0.00  0.00    +0.000 N 
ATOM      5  N   UNL     1       4.533  -0.665  -0.040  0.00  0.00    +0.000 NA
ATOM      6  C   UNL     1       3.257  -1.058  -0.041  0.00  0.00    +0.000 A 
ENDROOT
BRANCH   4   7
ATOM      7  C   UNL     1       5.662   1.479  -0.030  0.00  0.00    +0.000 C 
BRANCH   7   8
ATOM      8  C   UNL     1       6.562   1.214  -1.231  0.00  0.00    +0.000 C 
BRANCH   8   9
ATOM      9  O   UNL     1       5.921   1.568  -2.455  0.00  0.00    +0.000 OA
ATOM     10  H   UNL     1       5.243   0.884  -2.617  0.00  0.00    +0.000 HD
ENDBRANCH   8   9
ENDBRANCH   7   8
ENDBRANCH   4   7
TORSDOF 3
