REMARK  Name = ligand_9139347
REMARK  3 active torsions:
REMARK  status: ('A' for Active; 'I' for Inactive)
REMARK    1  A    between atoms: C_1  and  C_2
REMARK    2  A    between atoms: C_3  and  N_4
REMARK    3  A    between atoms: C_7  and  C_8
REMARK                            x       y       z     vdW  Elec       q    Type
REMARK                         _______ _______ _______ _____ _____    ______ ____
ROOT
ATOM      1  C   UNL     1       0.925   0.080  -0.059  0.00  0.00    +0.000 C 
ATOM      2  C   UNL     1       2.408   0.089  -0.061  0.00  0.00    +0.000 A 
ATOM      3  C   UNL     1       3.259   1.171  -0.066  0.00  0.00    +0.000 A 
ATOM      4  N   UNL     1       4.525   0.657  -0.068  0.00  0.00    +0.000 N 
ATOM      5  N   UNL     1       4.567  -0.687  -0.062  0.00  0.00    +0.000 NA
ATOM      6  C   UNL     1       3.271  -1.049  -0.058  0.00  0.00    +0.000 A 
ATOM      7  H   UNL     1       5.399   1.168  -0.075  0.00  0.00    +0.000 HD
ENDROOT
BRANCH   3   8
ATOM      8  N   UNL     1       3.023   2.494  -0.070  0.00  0.00    +0.000 N 
ATOM      9  H   UNL     1       2.075   2.862  -0.040  0.00  0.00    +0.000 HD
ATOM     10  H   UNL     1       3.745   3.208  -0.039  0.00  0.00    +0.000 HD
ENDBRANCH   3   8
BRANCH   6  11
ATOM     11  C   UNL     1       2.896  -2.459  -0.053  0.00  0.00    +0.000 C 
ATOM     12  O   UNL     1       1.738  -2.870  -0.051  0.00  0.00    +0.000 OA
ENDBRANCH   6  11
TORSDOF 2
