REMARK  Name = ligand_9140105
REMARK  1 active torsions:
REMARK  status: ('A' for Active; 'I' for Inactive)
REMARK    1  A    between atoms: C_1  and  C_2
REMARK                            x       y       z     vdW  Elec       q    Type
REMARK                         _______ _______ _______ _____ _____    ______ ____
ROOT
ATOM      1  C   UNL     1       0.881   0.076  -0.331  0.00  0.00    +0.000 C 
ATOM      2  C   UNL     1       2.356   0.077   0.073  0.00  0.00    +0.000 C 
ATOM      3  C   UNL     1       3.060   1.359  -0.446  0.00  0.00    +0.000 C 
ATOM      4  O   UNL     1       4.423   1.548  -0.024  0.00  0.00    +0.000 OA
ATOM      5  C   UNL     1       4.790   0.857   1.186  0.00  0.00    +0.000 C 
ATOM      6  C   UNL     1       6.126   0.169   1.162  0.00  0.00    +0.000 C 
ATOM      7  C   UNL     1       4.864  -0.646   1.070  0.00  0.00    +0.000 C 
ATOM      8  C   UNL     1       4.415  -1.260  -0.217  0.00  0.00    +0.000 C 
ATOM      9  N   UNL     1       2.959  -1.200  -0.367  0.00  0.00    +0.000 NA
ATOM     10  H   UNL     1       2.538  -1.962   0.161  0.00  0.00    +0.000 HD
ENDROOT
TORSDOF 0
