REMARK  Name = ligand_9141172
REMARK  2 active torsions:
REMARK  status: ('A' for Active; 'I' for Inactive)
REMARK    1  A    between atoms: C_1  and  C_2
REMARK    2  A    between atoms: C_2  and  C_3
REMARK                            x       y       z     vdW  Elec       q    Type
REMARK                         _______ _______ _______ _____ _____    ______ ____
ROOT
ATOM      1  C   UNL     1       1.315  -0.124   0.112  0.00  0.00    +0.000 C 
ATOM      2  C   UNL     1       2.842   0.024   0.132  0.00  0.00    +0.000 C 
ATOM      3  C   UNL     1       3.402  -0.573  -1.174  0.00  0.00    +0.000 C 
ATOM      4  O   UNL     1       3.302  -0.756   1.217  0.00  0.00    +0.000 OA
ATOM      5  C   UNL     1       4.634  -0.482   1.595  0.00  0.00    +0.000 C 
ATOM      6  C   UNL     1       4.663   0.737   2.454  0.00  0.00    +0.000 C 
ATOM      7  N   UNL     1       4.251   1.931   2.159  0.00  0.00    +0.000 NA
ATOM      8  N   UNL     1       3.791   2.292   0.909  0.00  0.00    +0.000 NA
ATOM      9  C   UNL     1       3.153   1.516   0.088  0.00  0.00    +0.000 C 
ENDROOT
TORSDOF 0
