REMARK  Name = ligand_9141218
REMARK  2 active torsions:
REMARK  status: ('A' for Active; 'I' for Inactive)
REMARK    1  A    between atoms: C_1  and  C_2
REMARK    2  A    between atoms: N_8  and  N_9
REMARK                            x       y       z     vdW  Elec       q    Type
REMARK                         _______ _______ _______ _____ _____    ______ ____
ROOT
ATOM      1  C   UNL     1       1.019   0.095  -0.062  0.00  0.00    +0.000 C 
ATOM      2  C   UNL     1       2.515   0.066  -0.052  0.00  0.00    +0.000 C 
ATOM      3  C   UNL     1       3.262   1.176  -0.004  0.00  0.00    +0.000 C 
ATOM      4  O   UNL     1       4.651   1.210   0.008  0.00  0.00    +0.000 OA
ATOM      5  C   UNL     1       5.310   0.030  -0.100  0.00  0.00    +0.000 C 
ATOM      6  C   UNL     1       4.460  -1.237  -0.161  0.00  0.00    +0.000 C 
ATOM      7  O   UNL     1       3.048  -1.195  -0.102  0.00  0.00    +0.000 OA
ATOM      8  N   UNL     1       6.613   0.073  -0.141  0.00  0.00    +0.000 NA
ENDROOT
BRANCH   8   9
ATOM      9  N   UNL     1       7.279  -1.097  -0.289  0.00  0.00    +0.000 N 
ATOM     10  H   UNL     1       8.281  -0.932  -0.156  0.00  0.00    +0.000 HD
ATOM     11  H   UNL     1       7.020  -1.808   0.395  0.00  0.00    +0.000 HD
ENDBRANCH   8   9
TORSDOF 1
