REMARK  Name = ligand_9141074
REMARK  0 active torsions:
REMARK  status: ('A' for Active; 'I' for Inactive)
REMARK                            x       y       z     vdW  Elec       q    Type
REMARK                         _______ _______ _______ _____ _____    ______ ____
ROOT
ATOM      1  C   UNL     1       1.094  -0.082   0.223  0.00  0.00    +0.000 C 
ATOM      2  C   UNL     1       2.371  -0.098  -0.163  0.00  0.00    +0.000 C 
ATOM      3  N   UNL     1       3.020   1.048  -0.517  0.00  0.00    +0.000 N 
ATOM      4  C   UNL     1       4.319   1.133  -0.930  0.00  0.00    +0.000 C 
ATOM      5  O   UNL     1       4.864   2.208  -1.152  0.00  0.00    +0.000 OA
ATOM      6  C   UNL     1       4.990  -0.175  -1.132  0.00  0.00    +0.000 C 
ATOM      7  C   UNL     1       6.325  -0.235  -1.242  0.00  0.00    +0.000 C 
ATOM      8  C   UNL     1       4.054  -1.334  -1.204  0.00  0.00    +0.000 C 
ATOM      9  O   UNL     1       3.078  -1.278  -0.163  0.00  0.00    +0.000 OA
ATOM     10  H   UNL     1       2.548   1.938  -0.423  0.00  0.00    +0.000 HD
ENDROOT
TORSDOF 0
