REMARK  Name = ligand_9141829
REMARK  3 active torsions:
REMARK  status: ('A' for Active; 'I' for Inactive)
REMARK    1  A    between atoms: C_1  and  C_2
REMARK    2  A    between atoms: C_6  and  C_7
REMARK    3  A    between atoms: C_6  and  C_8
REMARK                            x       y       z     vdW  Elec       q    Type
REMARK                         _______ _______ _______ _____ _____    ______ ____
ROOT
ATOM      1  C   UNL     1       0.999  -0.171  -0.080  0.00  0.00    +0.000 C 
ATOM      2  C   UNL     1       2.499   0.054  -0.086  0.00  0.00    +0.000 C 
ATOM      3  C   UNL     1       3.366  -0.951   0.703  0.00  0.00    +0.000 C 
ATOM      4  O   UNL     1       3.407  -2.141   0.914  0.00  0.00    +0.000 OA
ATOM      5  N   UNL     1       4.146   0.055   1.183  0.00  0.00    +0.000 N 
ATOM      6  C   UNL     1       3.161   1.109   0.876  0.00  0.00    +0.000 C 
ATOM      7  C   UNL     1       3.834   2.288   0.189  0.00  0.00    +0.000 C 
ATOM      8  H   UNL     1       4.664  -0.096   2.036  0.00  0.00    +0.000 HD
ENDROOT
BRANCH   6   9
ATOM      9  C   UNL     1       2.386   1.491   2.100  0.00  0.00    +0.000 C 
ATOM     10  C   UNL     1       2.997   1.973   3.188  0.00  0.00    +0.000 C 
ENDBRANCH   6   9
TORSDOF 1
