REMARK  Name = ligand_9142819
REMARK  4 active torsions:
REMARK  status: ('A' for Active; 'I' for Inactive)
REMARK    1  A    between atoms: C_1  and  C_2
REMARK    2  A    between atoms: C_4  and  C_5
REMARK    3  A    between atoms: C_5  and  O_6
REMARK    4  A    between atoms: O_6  and  N_7
REMARK                            x       y       z     vdW  Elec       q    Type
REMARK                         _______ _______ _______ _____ _____    ______ ____
ROOT
ATOM      1  C   UNL     1       2.409  -1.528  -2.237  0.00  0.00    +0.000 C 
ENDROOT
BRANCH   1   5
ATOM      2  C   UNL     1       0.860   0.013   0.036  0.00  0.00    +0.000 C 
ATOM      3  C   UNL     1       2.347  -0.084  -0.011  0.00  0.00    +0.000 C 
ATOM      4  N   UNL     1       3.061   0.648  -1.051  0.00  0.00    +0.000 NA
ATOM      5  C   UNL     1       3.094  -0.818  -1.108  0.00  0.00    +0.000 C 
ATOM      6  H   UNL     1       3.946   1.016  -0.696  0.00  0.00    +0.000 HD
ENDBRANCH   1   5
BRANCH   1   7
ATOM      7  O   UNL     1       2.553  -2.942  -2.026  0.00  0.00    +0.000 OA
BRANCH   7   8
ATOM      8  N   UNL     1       1.901  -3.587  -3.086  0.00  0.00    +0.000 N 
ATOM      9  C   UNL     1       2.741  -4.361  -3.840  0.00  0.00    +0.000 C 
ATOM     10  N   UNL     1       4.008  -4.209  -3.999  0.00  0.00    +0.000 NA
ATOM     11  H   UNL     1       1.038  -4.044  -2.797  0.00  0.00    +0.000 HD
ATOM     12  H   UNL     1       4.285  -3.399  -3.432  0.00  0.00    +0.000 HD
ENDBRANCH   7   8
ENDBRANCH   1   7
TORSDOF 3
