REMARK  Name = ligand_9142892
REMARK  2 active torsions:
REMARK  status: ('A' for Active; 'I' for Inactive)
REMARK    1  A    between atoms: C_1  and  C_2
REMARK    2  A    between atoms: C_7  and  C_8
REMARK                            x       y       z     vdW  Elec       q    Type
REMARK                         _______ _______ _______ _____ _____    ______ ____
ROOT
ATOM      1  C   UNL     1       1.051   0.079   0.296  0.00  0.00    +0.000 C 
ATOM      2  C   UNL     1       2.560  -0.024   0.033  0.00  0.00    +0.000 C 
ATOM      3  N   UNL     1       2.881   0.847  -1.130  0.00  0.00    +0.000 NA
ATOM      4  C   UNL     1       2.626   0.002  -2.322  0.00  0.00    +0.000 C 
ATOM      5  C   UNL     1       3.638  -0.924  -2.917  0.00  0.00    +0.000 C 
ATOM      6  C   UNL     1       2.674  -1.445  -1.886  0.00  0.00    +0.000 C 
ATOM      7  C   UNL     1       3.021  -1.424  -0.419  0.00  0.00    +0.000 C 
ATOM      8  H   UNL     1       3.874   1.087  -1.098  0.00  0.00    +0.000 HD
ENDROOT
BRANCH   7   9
ATOM      9  C   UNL     1       2.452  -2.525   0.435  0.00  0.00    +0.000 C 
ATOM     10  O   UNL     1       1.800  -3.476   0.010  0.00  0.00    +0.000 OA
ENDBRANCH   7   9
TORSDOF 1
