REMARK  Name = ligand_9142154
REMARK  2 active torsions:
REMARK  status: ('A' for Active; 'I' for Inactive)
REMARK    1  A    between atoms: C_1  and  C_2
REMARK    2  A    between atoms: C_8  and  C_9
REMARK                            x       y       z     vdW  Elec       q    Type
REMARK                         _______ _______ _______ _____ _____    ______ ____
ROOT
ATOM      1  C   UNL     1       0.972  -0.032  -0.017  0.00  0.00    +0.000 C 
ATOM      2  C   UNL     1       2.480   0.082   0.120  0.00  0.00    +0.000 C 
ATOM      3  C   UNL     1       3.126  -1.144   0.736  0.00  0.00    +0.000 C 
ATOM      4  O   UNL     1       4.417  -0.719   1.200  0.00  0.00    +0.000 OA
ATOM      5  N   UNL     1       4.292   0.662   1.448  0.00  0.00    +0.000 N 
ATOM      6  C   UNL     1       5.473   1.345   1.432  0.00  0.00    +0.000 C 
ATOM      7  N   UNL     1       6.638   0.864   1.692  0.00  0.00    +0.000 NA
ATOM      8  C   UNL     1       3.011   1.191   1.019  0.00  0.00    +0.000 C 
ATOM      9  C   UNL     1       2.173   1.497   2.258  0.00  0.00    +0.000 C 
ATOM     10  H   UNL     1       6.481  -0.130   1.909  0.00  0.00    +0.000 HD
ENDROOT
TORSDOF 0
