REMARK  Name = ligand_9142335
REMARK  3 active torsions:
REMARK  status: ('A' for Active; 'I' for Inactive)
REMARK    1  A    between atoms: C_1  and  C_2
REMARK    2  A    between atoms: C_7  and  C_8
REMARK    3  A    between atoms: C_7  and  N_9
REMARK                            x       y       z     vdW  Elec       q    Type
REMARK                         _______ _______ _______ _____ _____    ______ ____
ROOT
ATOM      1  C   UNL     1       0.995  -0.145   0.031  0.00  0.00    +0.000 C 
ATOM      2  C   UNL     1       2.511  -0.056   0.105  0.00  0.00    +0.000 C 
ATOM      3  C   UNL     1       3.157  -1.266   0.727  0.00  0.00    +0.000 C 
ATOM      4  O   UNL     1       2.771  -2.420   0.627  0.00  0.00    +0.000 OA
ATOM      5  O   UNL     1       4.285  -0.895   1.405  0.00  0.00    +0.000 OA
ATOM      6  C   UNL     1       4.465   0.521   1.278  0.00  0.00    +0.000 C 
ATOM      7  C   UNL     1       3.073   1.076   0.969  0.00  0.00    +0.000 C 
ATOM      8  C   UNL     1       3.138   2.410   0.226  0.00  0.00    +0.000 C 
ENDROOT
BRANCH   7   9
ATOM      9  N   UNL     1       2.331   1.304   2.223  0.00  0.00    +0.000 NA
ATOM     10  H   UNL     1       2.256   0.440   2.764  0.00  0.00    +0.000 HD
ATOM     11  H   UNL     1       1.377   1.609   2.030  0.00  0.00    +0.000 HD
ENDBRANCH   7   9
TORSDOF 1
