REMARK  Name = ligand_9142423
REMARK  2 active torsions:
REMARK  status: ('A' for Active; 'I' for Inactive)
REMARK    1  A    between atoms: C_1  and  C_2
REMARK    2  A    between atoms: C_8  and  C_9
REMARK                            x       y       z     vdW  Elec       q    Type
REMARK                         _______ _______ _______ _____ _____    ______ ____
ROOT
ATOM      1  C   UNL     1       0.843   0.150  -0.100  0.00  0.00    +0.000 C 
ATOM      2  C   UNL     1       2.268  -0.226   0.078  0.00  0.00    +0.000 C 
ATOM      3  N   UNL     1       3.287   0.031  -0.882  0.00  0.00    +0.000 N 
ATOM      4  C   UNL     1       3.028   0.407  -2.193  0.00  0.00    +0.000 C 
ATOM      5  O   UNL     1       3.335   1.469  -2.714  0.00  0.00    +0.000 OA
ATOM      6  O   UNL     1       2.400  -0.608  -2.870  0.00  0.00    +0.000 OA
ATOM      7  C   UNL     1       2.393  -1.778  -2.042  0.00  0.00    +0.000 C 
ATOM      8  C   UNL     1       2.916  -1.343  -0.708  0.00  0.00    +0.000 C 
ATOM      9  C   UNL     1       3.811  -2.285   0.026  0.00  0.00    +0.000 C 
ENDROOT
TORSDOF 0
