REMARK  Name = ligand_9142028
REMARK  3 active torsions:
REMARK  status: ('A' for Active; 'I' for Inactive)
REMARK    1  A    between atoms: C_1  and  C_2
REMARK    2  A    between atoms: C_6  and  C_7
REMARK    3  A    between atoms: C_8  and  C_9
REMARK                            x       y       z     vdW  Elec       q    Type
REMARK                         _______ _______ _______ _____ _____    ______ ____
ROOT
ATOM      1  C   UNL     1       0.942   0.079  -0.077  0.00  0.00    +0.000 C 
ATOM      2  C   UNL     1       2.454   0.045   0.086  0.00  0.00    +0.000 C 
ATOM      3  C   UNL     1       2.861  -1.179   0.903  0.00  0.00    +0.000 C 
ATOM      4  O   UNL     1       2.701  -2.351   0.603  0.00  0.00    +0.000 OA
ATOM      5  N   UNL     1       3.426  -0.716   2.076  0.00  0.00    +0.000 N 
ATOM      6  C   UNL     1       3.498   0.643   2.115  0.00  0.00    +0.000 C 
ATOM      7  C   UNL     1       4.088   1.348   3.282  0.00  0.00    +0.000 C 
ATOM      8  C   UNL     1       2.984   1.150   0.985  0.00  0.00    +0.000 C 
ATOM      9  C   UNL     1       2.934   2.575   0.558  0.00  0.00    +0.000 C 
ATOM     10  H   UNL     1       3.765  -1.346   2.789  0.00  0.00    +0.000 HD
ENDROOT
TORSDOF 0
