REMARK  Name = ligand_914241
REMARK  2 active torsions:
REMARK  status: ('A' for Active; 'I' for Inactive)
REMARK    1  A    between atoms: C_1  and  C_2
REMARK    2  A    between atoms: C_6  and  C_8
REMARK                            x       y       z     vdW  Elec       q    Type
REMARK                         _______ _______ _______ _____ _____    ______ ____
ROOT
ATOM      1  C   UNL     1       0.986  -0.054   0.150  0.00  0.00    +0.000 C 
ATOM      2  C   UNL     1       2.461  -0.132   0.017  0.00  0.00    +0.000 C 
ATOM      3  C   UNL     1       3.346   0.862  -0.182  0.00  0.00    +0.000 C 
ATOM      4  C   UNL     1       4.740   0.401  -0.272  0.00  0.00    +0.000 C 
ATOM      5  N   UNL     1       5.343  -0.200   0.902  0.00  0.00    +0.000 NA
ATOM      6  C   UNL     1       4.679  -1.106  -0.062  0.00  0.00    +0.000 C 
ATOM      7  C   UNL     1       3.201  -1.456   0.103  0.00  0.00    +0.000 C 
ATOM      8  H   UNL     1       4.757  -0.060   1.726  0.00  0.00    +0.000 HD
ENDROOT
BRANCH   6   9
ATOM      9  C   UNL     1       5.487  -2.007  -0.837  0.00  0.00    +0.000 C 
ATOM     10  N   UNL     1       6.107  -2.771  -1.451  0.00  0.00    +0.000 NA
ENDBRANCH   6   9
TORSDOF 1
