REMARK  Name = ligand_9143280
REMARK  3 active torsions:
REMARK  status: ('A' for Active; 'I' for Inactive)
REMARK    1  A    between atoms: C_1  and  C_2
REMARK    2  A    between atoms: C_5  and  C_6
REMARK    3  A    between atoms: C_5  and  C_7
REMARK                            x       y       z     vdW  Elec       q    Type
REMARK                         _______ _______ _______ _____ _____    ______ ____
ROOT
ATOM      1  C   UNL     1       0.917  -0.028  -0.047  0.00  0.00    +0.000 C 
ATOM      2  C   UNL     1       2.420   0.163  -0.008  0.00  0.00    +0.000 C 
ATOM      3  N   UNL     1       3.111  -0.899   0.776  0.00  0.00    +0.000 NA
ATOM      4  C   UNL     1       4.131   0.105   1.171  0.00  0.00    +0.000 C 
ATOM      5  C   UNL     1       3.051   1.210   0.971  0.00  0.00    +0.000 C 
ATOM      6  C   UNL     1       3.604   2.444   0.250  0.00  0.00    +0.000 C 
ATOM      7  H   UNL     1       3.470  -1.674   0.216  0.00  0.00    +0.000 HD
ENDROOT
BRANCH   5   8
ATOM      8  C   UNL     1       2.192   1.635   2.231  0.00  0.00    +0.000 C 
ATOM      9  N   UNL     1       1.949   0.651   3.155  0.00  0.00    +0.000 N 
ATOM     10  O   UNL     1       1.717   2.752   2.439  0.00  0.00    +0.000 OA
ATOM     11  H   UNL     1       2.117  -0.319   2.909  0.00  0.00    +0.000 HD
ATOM     12  H   UNL     1       1.282   0.862   3.885  0.00  0.00    +0.000 HD
ENDBRANCH   5   8
TORSDOF 1
