REMARK  Name = ligand_914355
REMARK  2 active torsions:
REMARK  status: ('A' for Active; 'I' for Inactive)
REMARK    1  A    between atoms: C_1  and  C_2
REMARK    2  A    between atoms: C_7  and  N_8
REMARK                            x       y       z     vdW  Elec       q    Type
REMARK                         _______ _______ _______ _____ _____    ______ ____
ROOT
ATOM      1  C   UNL     1       0.811   0.204  -0.236  0.00  0.00    +0.000 C 
ATOM      2  C   UNL     1       2.302   0.048  -0.001  0.00  0.00    +0.000 C 
ATOM      3  C   UNL     1       3.149   1.136  -0.666  0.00  0.00    +0.000 C 
ATOM      4  C   UNL     1       4.560   0.564  -0.522  0.00  0.00    +0.000 C 
ATOM      5  N   UNL     1       5.396   0.654  -1.728  0.00  0.00    +0.000 NA
ATOM      6  C   UNL     1       5.022  -0.719  -2.123  0.00  0.00    +0.000 C 
ATOM      7  C   UNL     1       4.366  -0.949  -0.741  0.00  0.00    +0.000 C 
ATOM      8  C   UNL     1       2.881  -1.246  -0.591  0.00  0.00    +0.000 C 
ATOM      9  H   UNL     1       6.387   0.745  -1.505  0.00  0.00    +0.000 HD
ENDROOT
BRANCH   7  10
ATOM     10  N   UNL     1       5.254  -1.707   0.154  0.00  0.00    +0.000 NA
ATOM     11  H   UNL     1       6.243  -1.494   0.033  0.00  0.00    +0.000 HD
ATOM     12  H   UNL     1       5.168  -2.717   0.050  0.00  0.00    +0.000 HD
ENDBRANCH   7  10
TORSDOF 1
