REMARK  Name = ligand_9143735
REMARK  3 active torsions:
REMARK  status: ('A' for Active; 'I' for Inactive)
REMARK    1  A    between atoms: C_1  and  C_2
REMARK    2  A    between atoms: C_6  and  C_7
REMARK    3  A    between atoms: C_7  and  O_8
REMARK                            x       y       z     vdW  Elec       q    Type
REMARK                         _______ _______ _______ _____ _____    ______ ____
ROOT
ATOM      1  C   UNL     1       1.002  -0.012  -0.116  0.00  0.00    +0.000 C 
ATOM      2  C   UNL     1       2.527  -0.007  -0.025  0.00  0.00    +0.000 C 
ATOM      3  N   UNL     1       2.972  -1.273   0.616  0.00  0.00    +0.000 NA
ATOM      4  C   UNL     1       3.349  -0.927   1.996  0.00  0.00    +0.000 C 
ATOM      5  C   UNL     1       3.512   0.552   2.008  0.00  0.00    +0.000 C 
ATOM      6  C   UNL     1       3.045   1.073   0.868  0.00  0.00    +0.000 C 
ATOM      7  H   UNL     1       3.818  -1.576   0.130  0.00  0.00    +0.000 HD
ENDROOT
BRANCH   6   8
ATOM      8  C   UNL     1       3.048   2.465   0.394  0.00  0.00    +0.000 C 
ATOM      9  O   UNL     1       2.889   2.765  -0.778  0.00  0.00    +0.000 OA
BRANCH   8  10
ATOM     10  O   UNL     1       3.229   3.377   1.367  0.00  0.00    +0.000 OA
ATOM     11  H   UNL     1       3.235   3.007   2.266  0.00  0.00    +0.000 HD
ENDBRANCH   8  10
ENDBRANCH   6   8
TORSDOF 2
