REMARK  Name = ligand_914369
REMARK  0 active torsions:
REMARK  status: ('A' for Active; 'I' for Inactive)
REMARK                            x       y       z     vdW  Elec       q    Type
REMARK                         _______ _______ _______ _____ _____    ______ ____
ROOT
ATOM      1  C   UNL     1       1.273  -0.094   0.138  0.00  0.00    +0.000 C 
ATOM      2  C   UNL     1       2.602   0.020   0.139  0.00  0.00    +0.000 C 
ATOM      3  C   UNL     1       3.409   1.306   0.191  0.00  0.00    +0.000 C 
ATOM      4  C   UNL     1       4.795   0.874  -0.306  0.00  0.00    +0.000 C 
ATOM      5  N   UNL     1       6.005   1.282   0.418  0.00  0.00    +0.000 NA
ATOM      6  C   UNL     1       6.946   0.156   0.187  0.00  0.00    +0.000 C 
ATOM      7  C   UNL     1       6.128  -1.141   0.063  0.00  0.00    +0.000 C 
ATOM      8  C   UNL     1       4.762  -0.598  -0.092  0.00  0.00    +0.000 C 
ATOM      9  C   UNL     1       3.539  -1.080   0.110  0.00  0.00    +0.000 C 
ATOM     10  H   UNL     1       5.787   1.322   1.413  0.00  0.00    +0.000 HD
ENDROOT
TORSDOF 0
