REMARK  Name = ligand_9144417
REMARK  1 active torsions:
REMARK  status: ('A' for Active; 'I' for Inactive)
REMARK    1  A    between atoms: C_1  and  C_2
REMARK                            x       y       z     vdW  Elec       q    Type
REMARK                         _______ _______ _______ _____ _____    ______ ____
ROOT
ATOM      1  C   UNL     1       1.099  -0.070   0.061  0.00  0.00    +0.000 C 
ATOM      2  C   UNL     1       2.608  -0.036   0.008  0.00  0.00    +0.000 C 
ATOM      3  N   UNL     1       3.166   1.119  -0.136  0.00  0.00    +0.000 NA
ATOM      4  C   UNL     1       4.618   1.186  -0.161  0.00  0.00    +0.000 C 
ATOM      5  C   UNL     1       5.266  -0.157  -0.270  0.00  0.00    +0.000 C 
ATOM      6  N   UNL     1       4.665  -1.293  -0.113  0.00  0.00    +0.000 NA
ATOM      7  N   UNL     1       3.299  -1.244   0.103  0.00  0.00    +0.000 N 
ATOM      8  C   UNL     1       2.721  -2.495   0.351  0.00  0.00    +0.000 C 
ATOM      9  O   UNL     1       1.554  -2.762   0.608  0.00  0.00    +0.000 OA
ENDROOT
TORSDOF 0
