REMARK  Name = ligand_9145752
REMARK  1 active torsions:
REMARK  status: ('A' for Active; 'I' for Inactive)
REMARK    1  A    between atoms: C_1  and  C_2
REMARK                            x       y       z     vdW  Elec       q    Type
REMARK                         _______ _______ _______ _____ _____    ______ ____
ROOT
ATOM      1  C   UNL     1       0.892   0.014   0.075  0.00  0.00    +0.000 C 
ATOM      2  C   UNL     1       2.419  -0.009   0.093  0.00  0.00    +0.000 C 
ATOM      3  N   UNL     1       2.881  -1.083   0.951  0.00  0.00    +0.000 N 
ATOM      4  C   UNL     1       4.202  -1.449   0.992  0.00  0.00    +0.000 C 
ATOM      5  O   UNL     1       4.509  -2.609   1.258  0.00  0.00    +0.000 OA
ATOM      6  C   UNL     1       5.226  -0.372   0.678  0.00  0.00    +0.000 C 
ATOM      7  N   UNL     1       4.908   0.828   1.454  0.00  0.00    +0.000 N 
ATOM      8  N   UNL     1       4.038   1.759   1.012  0.00  0.00    +0.000 NA
ATOM      9  C   UNL     1       2.921   1.391   0.451  0.00  0.00    +0.000 C 
ATOM     10  H   UNL     1       2.272  -1.877   1.105  0.00  0.00    +0.000 HD
ATOM     11  H   UNL     1       5.771   1.280   1.761  0.00  0.00    +0.000 HD
ENDROOT
TORSDOF 0
