REMARK  Name = ligand_9145291
REMARK  4 active torsions:
REMARK  status: ('A' for Active; 'I' for Inactive)
REMARK    1  A    between atoms: C_1  and  C_2
REMARK    2  A    between atoms: N_5  and  O_6
REMARK    3  A    between atoms: C_7  and  C_8
REMARK    4  A    between atoms: C_8  and  O_9
REMARK                            x       y       z     vdW  Elec       q    Type
REMARK                         _______ _______ _______ _____ _____    ______ ____
ROOT
ATOM      1  C   UNL     1       1.035  -0.011   0.046  0.00  0.00    +0.000 C 
ATOM      2  C   UNL     1       2.545   0.130  -0.057  0.00  0.00    +0.000 C 
ATOM      3  N   UNL     1       3.124  -1.171  -0.525  0.00  0.00    +0.000 NA
ATOM      4  C   UNL     1       4.020  -0.804  -1.388  0.00  0.00    +0.000 C 
ATOM      5  N   UNL     1       4.117   0.513  -1.753  0.00  0.00    +0.000 N 
ATOM      6  C   UNL     1       3.088   1.241  -0.999  0.00  0.00    +0.000 C 
ENDROOT
BRANCH   5   7
ATOM      7  O   UNL     1       5.406   1.022  -1.550  0.00  0.00    +0.000 OA
ATOM      8  H   UNL     1       5.845   0.846  -2.404  0.00  0.00    +0.000 HD
ENDBRANCH   5   7
BRANCH   6   9
ATOM      9  C   UNL     1       2.066   1.836  -1.980  0.00  0.00    +0.000 C 
BRANCH   9  10
ATOM     10  O   UNL     1       2.640   2.828  -2.837  0.00  0.00    +0.000 OA
ATOM     11  H   UNL     1       3.282   3.344  -2.320  0.00  0.00    +0.000 HD
ENDBRANCH   9  10
ENDBRANCH   6   9
TORSDOF 3
