REMARK  Name = ligand_9145828
REMARK  1 active torsions:
REMARK  status: ('A' for Active; 'I' for Inactive)
REMARK    1  A    between atoms: C_1  and  C_2
REMARK                            x       y       z     vdW  Elec       q    Type
REMARK                         _______ _______ _______ _____ _____    ______ ____
ROOT
ATOM      1  C   UNL     1       0.929   0.083   0.057  0.00  0.00    +0.000 C 
ATOM      2  C   UNL     1       2.436   0.084   0.035  0.00  0.00    +0.000 C 
ATOM      3  N   UNL     1       3.054   1.213  -0.086  0.00  0.00    +0.000 NA
ATOM      4  C   UNL     1       4.437   1.218  -0.099  0.00  0.00    +0.000 C 
ATOM      5  O   UNL     1       5.019   2.276   0.089  0.00  0.00    +0.000 OA
ATOM      6  N   UNL     1       5.190   0.080  -0.321  0.00  0.00    +0.000 NA
ATOM      7  C   UNL     1       4.604  -1.059  -0.196  0.00  0.00    +0.000 C 
ATOM      8  C   UNL     1       3.175  -1.193   0.112  0.00  0.00    +0.000 C 
ATOM      9  C   UNL     1       2.653  -2.387   0.418  0.00  0.00    +0.000 C 
ENDROOT
TORSDOF 0
