REMARK  Name = ligand_9146683
REMARK  2 active torsions:
REMARK  status: ('A' for Active; 'I' for Inactive)
REMARK    1  A    between atoms: C_1  and  C_2
REMARK    2  A    between atoms: C_6  and  O_7
REMARK                            x       y       z     vdW  Elec       q    Type
REMARK                         _______ _______ _______ _____ _____    ______ ____
ROOT
ATOM      1  C   UNL     1       1.039  -0.042  -0.013  0.00  0.00    +0.000 C 
ATOM      2  C   UNL     1       2.523  -0.082  -0.205  0.00  0.00    +0.000 C 
ATOM      3  N   UNL     1       3.119  -1.183  -0.552  0.00  0.00    +0.000 NA
ATOM      4  N   UNL     1       4.470  -1.261  -0.660  0.00  0.00    +0.000 N 
ATOM      5  C   UNL     1       5.337  -0.450   0.198  0.00  0.00    +0.000 C 
ATOM      6  C   UNL     1       5.483   0.929  -0.442  0.00  0.00    +0.000 C 
ATOM      7  C   UNL     1       4.136   1.547  -0.810  0.00  0.00    +0.000 C 
ATOM      8  O   UNL     1       3.072   1.137   0.055  0.00  0.00    +0.000 OA
ATOM      9  H   UNL     1       4.753  -2.243  -0.606  0.00  0.00    +0.000 HD
ENDROOT
BRANCH   6  10
ATOM     10  O   UNL     1       6.280   0.816  -1.633  0.00  0.00    +0.000 OA
ATOM     11  H   UNL     1       5.869   0.094  -2.147  0.00  0.00    +0.000 HD
ENDBRANCH   6  10
TORSDOF 1
