REMARK  Name = ligand_9146638
REMARK  2 active torsions:
REMARK  status: ('A' for Active; 'I' for Inactive)
REMARK    1  A    between atoms: C_1  and  C_2
REMARK    2  A    between atoms: C_6  and  O_7
REMARK                            x       y       z     vdW  Elec       q    Type
REMARK                         _______ _______ _______ _____ _____    ______ ____
ROOT
ATOM      1  C   UNL     1       1.068  -0.018  -0.157  0.00  0.00    +0.000 C 
ATOM      2  C   UNL     1       2.553  -0.037   0.042  0.00  0.00    +0.000 C 
ATOM      3  N   UNL     1       3.214   1.078   0.158  0.00  0.00    +0.000 NA
ATOM      4  N   UNL     1       4.530   0.987   0.452  0.00  0.00    +0.000 N 
ATOM      5  C   UNL     1       5.341  -0.059  -0.162  0.00  0.00    +0.000 C 
ATOM      6  C   UNL     1       4.729  -1.436   0.072  0.00  0.00    +0.000 C 
ATOM      7  C   UNL     1       3.214  -1.391   0.134  0.00  0.00    +0.000 C 
ATOM      8  O   UNL     1       2.505  -2.380   0.286  0.00  0.00    +0.000 OA
ATOM      9  H   UNL     1       4.977   1.900   0.312  0.00  0.00    +0.000 HD
ENDROOT
BRANCH   6  10
ATOM     10  O   UNL     1       5.280  -2.043   1.241  0.00  0.00    +0.000 OA
ATOM     11  H   UNL     1       4.949  -1.542   2.009  0.00  0.00    +0.000 HD
ENDBRANCH   6  10
TORSDOF 1
