REMARK  Name = ligand_9147545
REMARK  1 active torsions:
REMARK  status: ('A' for Active; 'I' for Inactive)
REMARK    1  A    between atoms: C_1  and  C_2
REMARK                            x       y       z     vdW  Elec       q    Type
REMARK                         _______ _______ _______ _____ _____    ______ ____
ROOT
ATOM      1  C   UNL     1       1.137   0.134  -0.009  0.00  0.00    +0.000 C 
ATOM      2  C   UNL     1       2.535  -0.207   0.379  0.00  0.00    +0.000 C 
ATOM      3  O   UNL     1       2.653  -0.691   1.728  0.00  0.00    +0.000 OA
ATOM      4  C   UNL     1       2.954  -1.613   0.673  0.00  0.00    +0.000 C 
ATOM      5  C   UNL     1       2.082  -2.828   0.541  0.00  0.00    +0.000 C 
ATOM      6  N   UNL     1       3.130  -3.927   0.601  0.00  0.00    +0.000 NA
ATOM      7  C   UNL     1       4.289  -3.406  -0.280  0.00  0.00    +0.000 C 
ATOM      8  C   UNL     1       4.292  -2.244   0.770  0.00  0.00    +0.000 C 
ATOM      9  C   UNL     1       4.082  -3.471   1.738  0.00  0.00    +0.000 C 
ENDROOT
TORSDOF 0
