REMARK  Name = ligand_9147717
REMARK  4 active torsions:
REMARK  status: ('A' for Active; 'I' for Inactive)
REMARK    1  A    between atoms: C_1  and  C_2
REMARK    2  A    between atoms: C_4  and  C_5
REMARK    3  A    between atoms: C_5  and  C_6
REMARK    4  A    between atoms: N_8  and  O_9
REMARK                            x       y       z     vdW  Elec       q    Type
REMARK                         _______ _______ _______ _____ _____    ______ ____
ROOT
ATOM      1  C   UNL     1       2.353  -1.484  -2.248  0.00  0.00    +0.000 C 
ATOM      2  N   UNL     1       2.007  -2.699  -1.937  0.00  0.00    +0.000 NA
ENDROOT
BRANCH   1   6
ATOM      3  C   UNL     1       0.887  -0.054   0.042  0.00  0.00    +0.000 C 
ATOM      4  C   UNL     1       2.368  -0.199   0.003  0.00  0.00    +0.000 C 
ATOM      5  O   UNL     1       2.988   0.619  -0.989  0.00  0.00    +0.000 OA
ATOM      6  C   UNL     1       3.121  -0.801  -1.173  0.00  0.00    +0.000 C 
ENDBRANCH   1   6
BRANCH   1   7
ATOM      7  C   UNL     1       2.077  -0.798  -3.547  0.00  0.00    +0.000 C 
ATOM      8  C   UNL     1       2.477   0.423  -3.921  0.00  0.00    +0.000 C 
ENDBRANCH   1   7
BRANCH   2   9
ATOM      9  O   UNL     1       1.320  -3.342  -2.973  0.00  0.00    +0.000 OA
ATOM     10  H   UNL     1       1.179  -4.235  -2.607  0.00  0.00    +0.000 HD
ENDBRANCH   2   9
TORSDOF 3
