REMARK  Name = ligand_9148836
REMARK  3 active torsions:
REMARK  status: ('A' for Active; 'I' for Inactive)
REMARK    1  A    between atoms: C_1  and  C_2
REMARK    2  A    between atoms: C_6  and  C_7
REMARK    3  A    between atoms: C_6  and  C_8
REMARK                            x       y       z     vdW  Elec       q    Type
REMARK                         _______ _______ _______ _____ _____    ______ ____
ROOT
ATOM      1  C   UNL     1       0.906   0.137   0.072  0.00  0.00    +0.000 C 
ATOM      2  C   UNL     1       2.432   0.040  -0.050  0.00  0.00    +0.000 C 
ATOM      3  O   UNL     1       2.857   1.195  -0.832  0.00  0.00    +0.000 OA
ATOM      4  C   UNL     1       3.176   0.663  -2.063  0.00  0.00    +0.000 C 
ATOM      5  C   UNL     1       3.251  -0.660  -2.128  0.00  0.00    +0.000 C 
ATOM      6  C   UNL     1       2.993  -1.217  -0.767  0.00  0.00    +0.000 C 
ATOM      7  C   UNL     1       4.299  -1.705  -0.130  0.00  0.00    +0.000 C 
ENDROOT
BRANCH   6   8
ATOM      8  C   UNL     1       1.991  -2.359  -0.803  0.00  0.00    +0.000 C 
ATOM      9  N   UNL     1       1.159  -3.306  -0.833  0.00  0.00    +0.000 NA
ENDBRANCH   6   8
TORSDOF 1
