REMARK  Name = ligand_9148895
REMARK  2 active torsions:
REMARK  status: ('A' for Active; 'I' for Inactive)
REMARK    1  A    between atoms: C_1  and  C_2
REMARK    2  A    between atoms: C_6  and  C_7
REMARK                            x       y       z     vdW  Elec       q    Type
REMARK                         _______ _______ _______ _____ _____    ______ ____
ROOT
ATOM      1  C   UNL     1       1.084  -0.125  -0.025  0.00  0.00    +0.000 C 
ATOM      2  C   UNL     1       2.595  -0.028   0.081  0.00  0.00    +0.000 C 
ATOM      3  O   UNL     1       3.134  -1.219   0.681  0.00  0.00    +0.000 OA
ATOM      4  C   UNL     1       4.389  -0.879   1.293  0.00  0.00    +0.000 C 
ATOM      5  C   UNL     1       4.550   0.630   1.206  0.00  0.00    +0.000 C 
ATOM      6  C   UNL     1       3.153   1.129   0.891  0.00  0.00    +0.000 C 
ENDROOT
BRANCH   6   7
ATOM      7  C   UNL     1       2.366   1.473   2.147  0.00  0.00    +0.000 C 
ATOM      8  N   UNL     1       2.190   0.491   3.074  0.00  0.00    +0.000 N 
ATOM      9  O   UNL     1       1.916   2.597   2.348  0.00  0.00    +0.000 OA
ATOM     10  H   UNL     1       2.255  -0.486   2.810  0.00  0.00    +0.000 HD
ATOM     11  H   UNL     1       1.587   0.719   3.854  0.00  0.00    +0.000 HD
ENDBRANCH   6   7
TORSDOF 1
