REMARK  Name = ligand_9149209
REMARK  4 active torsions:
REMARK  status: ('A' for Active; 'I' for Inactive)
REMARK    1  A    between atoms: C_1  and  C_2
REMARK    2  A    between atoms: C_4  and  C_5
REMARK    3  A    between atoms: C_4  and  C_6
REMARK    4  A    between atoms: C_8  and  N_9
REMARK                            x       y       z     vdW  Elec       q    Type
REMARK                         _______ _______ _______ _____ _____    ______ ____
ROOT
ATOM      1  C   UNL     1       1.128  -0.049  -0.046  0.00  0.00    +0.000 C 
ATOM      2  C   UNL     1       2.635   0.056   0.105  0.00  0.00    +0.000 C 
ATOM      3  O   UNL     1       3.142  -1.108   0.785  0.00  0.00    +0.000 OA
ATOM      4  C   UNL     1       4.368  -0.742   1.456  0.00  0.00    +0.000 C 
ATOM      5  C   UNL     1       4.246  -1.167   2.921  0.00  0.00    +0.000 C 
ATOM      6  C   UNL     1       5.526  -1.503   0.806  0.00  0.00    +0.000 C 
ATOM      7  C   UNL     1       4.533   0.774   1.284  0.00  0.00    +0.000 C 
ATOM      8  C   UNL     1       3.147   1.266   0.899  0.00  0.00    +0.000 C 
ENDROOT
BRANCH   8   9
ATOM      9  N   UNL     1       2.371   1.601   2.101  0.00  0.00    +0.000 NA
ATOM     10  H   UNL     1       2.141   0.739   2.598  0.00  0.00    +0.000 HD
ATOM     11  H   UNL     1       1.469   1.986   1.822  0.00  0.00    +0.000 HD
ENDBRANCH   8   9
TORSDOF 1
