REMARK  Name = ligand_9149112
REMARK  5 active torsions:
REMARK  status: ('A' for Active; 'I' for Inactive)
REMARK    1  A    between atoms: C_1  and  C_2
REMARK    2  A    between atoms: C_4  and  C_5
REMARK    3  A    between atoms: C_4  and  C_6
REMARK    4  A    between atoms: C_7  and  C_8
REMARK    5  A    between atoms: C_8  and  N_9
REMARK                            x       y       z     vdW  Elec       q    Type
REMARK                         _______ _______ _______ _____ _____    ______ ____
ROOT
ATOM      1  C   UNL     1       1.131  -0.226   0.036  0.00  0.00    +0.000 C 
ATOM      2  C   UNL     1       2.613   0.076  -0.023  0.00  0.00    +0.000 C 
ATOM      3  O   UNL     1       3.395  -0.941   0.679  0.00  0.00    +0.000 OA
ATOM      4  C   UNL     1       4.341   0.082   1.118  0.00  0.00    +0.000 C 
ATOM      5  C   UNL     1       4.765  -0.154   2.562  0.00  0.00    +0.000 C 
ATOM      6  C   UNL     1       5.556   0.103   0.184  0.00  0.00    +0.000 C 
ATOM      7  C   UNL     1       3.270   1.188   0.839  0.00  0.00    +0.000 C 
ENDROOT
BRANCH   7   8
ATOM      8  C   UNL     1       2.488   1.721   2.035  0.00  0.00    +0.000 C 
BRANCH   8   9
ATOM      9  N   UNL     1       1.498   2.709   1.610  0.00  0.00    +0.000 NA
ATOM     10  H   UNL     1       1.973   3.557   1.300  0.00  0.00    +0.000 HD
ATOM     11  H   UNL     1       0.938   2.986   2.416  0.00  0.00    +0.000 HD
ENDBRANCH   8   9
ENDBRANCH   7   8
TORSDOF 2
