REMARK  Name = ligand_914991
REMARK  2 active torsions:
REMARK  status: ('A' for Active; 'I' for Inactive)
REMARK    1  A    between atoms: C_1  and  C_2
REMARK    2  A    between atoms: C_6  and  C_7
REMARK                            x       y       z     vdW  Elec       q    Type
REMARK                         _______ _______ _______ _____ _____    ______ ____
ROOT
ATOM      1  C   UNL     1       1.162  -0.061  -0.039  0.00  0.00    +0.000 C 
ATOM      2  C   UNL     1       2.627   0.200   0.023  0.00  0.00    +0.000 C 
ATOM      3  C   UNL     1       3.217   1.349  -0.350  0.00  0.00    +0.000 C 
ATOM      4  C   UNL     1       4.698   1.276  -0.095  0.00  0.00    +0.000 C 
ATOM      5  C   UNL     1       4.918  -0.076   0.550  0.00  0.00    +0.000 C 
ATOM      6  C   UNL     1       4.697  -1.399  -0.147  0.00  0.00    +0.000 C 
ATOM      7  C   UNL     1       3.568  -0.770   0.631  0.00  0.00    +0.000 C 
ENDROOT
BRANCH   6   8
ATOM      8  C   UNL     1       5.323  -2.570   0.411  0.00  0.00    +0.000 C 
ATOM      9  N   UNL     1       5.828  -3.502   0.889  0.00  0.00    +0.000 NA
ENDBRANCH   6   8
TORSDOF 1
