REMARK  Name = ligand_9149994
REMARK  3 active torsions:
REMARK  status: ('A' for Active; 'I' for Inactive)
REMARK    1  A    between atoms: C_1  and  C_2
REMARK    2  A    between atoms: C_2  and  O_3
REMARK    3  A    between atoms: N_8  and  N_9
REMARK                            x       y       z     vdW  Elec       q    Type
REMARK                         _______ _______ _______ _____ _____    ______ ____
ROOT
ATOM      1  C   UNL     1       0.955   0.098  -0.052  0.00  0.00    +0.000 C 
ATOM      2  C   UNL     1       2.482   0.076  -0.069  0.00  0.00    +0.000 C 
ATOM      3  C   UNL     1       3.081   1.241  -0.864  0.00  0.00    +0.000 C 
ATOM      4  N   UNL     1       3.258   0.762  -2.253  0.00  0.00    +0.000 NA
ATOM      5  C   UNL     1       3.214  -0.539  -2.183  0.00  0.00    +0.000 C 
ATOM      6  C   UNL     1       3.025  -1.128  -0.814  0.00  0.00    +0.000 C 
ATOM      7  N   UNL     1       3.352  -1.390  -3.263  0.00  0.00    +0.000 N 
ATOM      8  H   UNL     1       3.501  -2.379  -3.061  0.00  0.00    +0.000 HD
ENDROOT
BRANCH   7   9
ATOM      9  N   UNL     1       4.024  -0.859  -4.386  0.00  0.00    +0.000 NA
ATOM     10  H   UNL     1       4.240   0.130  -4.187  0.00  0.00    +0.000 HD
ATOM     11  H   UNL     1       3.374  -0.807  -5.174  0.00  0.00    +0.000 HD
ENDBRANCH   7   9
BRANCH   2  12
ATOM     12  O   UNL     1       2.964   0.061   1.272  0.00  0.00    +0.000 OA
ATOM     13  H   UNL     1       2.658   0.876   1.707  0.00  0.00    +0.000 HD
ENDBRANCH   2  12
TORSDOF 2
