REMARK  Name = ligand_9150480
REMARK  3 active torsions:
REMARK  status: ('A' for Active; 'I' for Inactive)
REMARK    1  A    between atoms: C_1  and  N_2
REMARK    2  A    between atoms: C_6  and  C_7
REMARK    3  A    between atoms: C_8  and  N_9
REMARK                            x       y       z     vdW  Elec       q    Type
REMARK                         _______ _______ _______ _____ _____    ______ ____
ROOT
ATOM      1  C   UNL     1       1.286   0.160   0.040  0.00  0.00    +0.000 C 
ATOM      2  N   UNL     1       2.717   0.035   0.059  0.00  0.00    +0.000 N 
ATOM      3  C   UNL     1       3.385  -1.168   0.154  0.00  0.00    +0.000 A 
ATOM      4  O   UNL     1       2.886  -2.283   0.224  0.00  0.00    +0.000 OA
ATOM      5  O   UNL     1       4.751  -0.942   0.171  0.00  0.00    +0.000 OA
ATOM      6  C   UNL     1       4.809   0.460   0.068  0.00  0.00    +0.000 A 
ATOM      7  C   UNL     1       6.159   1.079   0.053  0.00  0.00    +0.000 C 
ATOM      8  C   UNL     1       3.614   1.051  -0.009  0.00  0.00    +0.000 A 
ENDROOT
BRANCH   8   9
ATOM      9  N   UNL     1       3.322   2.376  -0.118  0.00  0.00    +0.000 N 
ATOM     10  H   UNL     1       4.075   2.990   0.177  0.00  0.00    +0.000 HD
ATOM     11  H   UNL     1       2.427   2.628   0.288  0.00  0.00    +0.000 HD
ENDBRANCH   8   9
TORSDOF 1
