REMARK  Name = ligand_9150938
REMARK  1 active torsions:
REMARK  status: ('A' for Active; 'I' for Inactive)
REMARK    1  A    between atoms: C_1  and  C_2
REMARK                            x       y       z     vdW  Elec       q    Type
REMARK                         _______ _______ _______ _____ _____    ______ ____
ROOT
ATOM      1  C   UNL     1       1.227   0.081   0.111  0.00  0.00    +0.000 C 
ATOM      2  C   UNL     1       2.727  -0.073  -0.061  0.00  0.00    +0.000 C 
ATOM      3  O   UNL     1       3.181  -1.218   0.680  0.00  0.00    +0.000 OA
ATOM      4  N   UNL     1       4.321  -0.715   1.297  0.00  0.00    +0.000 N 
ATOM      5  C   UNL     1       5.080  -1.636   1.962  0.00  0.00    +0.000 C 
ATOM      6  N   UNL     1       4.849  -2.900   2.096  0.00  0.00    +0.000 NA
ATOM      7  C   UNL     1       4.467   0.622   1.082  0.00  0.00    +0.000 C 
ATOM      8  C   UNL     1       5.462   1.442   1.438  0.00  0.00    +0.000 C 
ATOM      9  O   UNL     1       3.396   1.129   0.364  0.00  0.00    +0.000 OA
ATOM     10  H   UNL     1       3.966  -3.088   1.602  0.00  0.00    +0.000 HD
ENDROOT
TORSDOF 0
