REMARK  Name = ligand_915041
REMARK  2 active torsions:
REMARK  status: ('A' for Active; 'I' for Inactive)
REMARK    1  A    between atoms: C_1  and  C_2
REMARK    2  A    between atoms: C_5  and  C_8
REMARK                            x       y       z     vdW  Elec       q    Type
REMARK                         _______ _______ _______ _____ _____    ______ ____
ROOT
ATOM      1  C   UNL     1       1.310  -0.188   0.190  0.00  0.00    +0.000 C 
ATOM      2  C   UNL     1       2.730  -0.058  -0.380  0.00  0.00    +0.000 C 
ATOM      3  C   UNL     1       2.908   1.269  -1.114  0.00  0.00    +0.000 C 
ATOM      4  C   UNL     1       2.484   0.944  -2.539  0.00  0.00    +0.000 C 
ATOM      5  C   UNL     1       2.955  -0.479  -2.707  0.00  0.00    +0.000 C 
ATOM      6  C   UNL     1       2.129  -1.649  -2.218  0.00  0.00    +0.000 C 
ATOM      7  N   UNL     1       3.158  -1.095  -1.360  0.00  0.00    +0.000 NA
ENDROOT
BRANCH   5   8
ATOM      8  C   UNL     1       3.854  -0.787  -3.829  0.00  0.00    +0.000 C 
ATOM      9  C   UNL     1       5.185  -0.697  -3.855  0.00  0.00    +0.000 C 
ENDBRANCH   5   8
TORSDOF 1
