REMARK  Name = ligand_9151943
REMARK  3 active torsions:
REMARK  status: ('A' for Active; 'I' for Inactive)
REMARK    1  A    between atoms: C_1  and  C_2
REMARK    2  A    between atoms: C_2  and  C_3
REMARK    3  A    between atoms: C_5  and  C_6
REMARK                            x       y       z     vdW  Elec       q    Type
REMARK                         _______ _______ _______ _____ _____    ______ ____
ROOT
ATOM      1  C   UNL     1       3.161   1.375   0.316  0.00  0.00    +0.000 C 
ATOM      2  C   UNL     1       3.431   2.267  -0.876  0.00  0.00    +0.000 C 
ATOM      3  C   UNL     1       2.952   3.500  -0.674  0.00  0.00    +0.000 C 
ATOM      4  C   UNL     1       3.031   4.689  -1.558  0.00  0.00    +0.000 C 
ATOM      5  N   UNL     1       2.331   3.555   0.536  0.00  0.00    +0.000 N 
ATOM      6  C   UNL     1       2.362   2.337   1.197  0.00  0.00    +0.000 C 
ATOM      7  O   UNL     1       1.856   2.099   2.281  0.00  0.00    +0.000 OA
ATOM      8  H   UNL     1       1.868   4.363   0.925  0.00  0.00    +0.000 HD
ENDROOT
BRANCH   1  10
ATOM      9  C   UNL     1       1.071   0.208  -0.649  0.00  0.00    +0.000 C 
ATOM     10  C   UNL     1       2.435   0.066   0.014  0.00  0.00    +0.000 C 
ENDBRANCH   1  10
TORSDOF 1
