REMARK  Name = ligand_9151427
REMARK  1 active torsions:
REMARK  status: ('A' for Active; 'I' for Inactive)
REMARK    1  A    between atoms: C_2  and  C_3
REMARK                            x       y       z     vdW  Elec       q    Type
REMARK                         _______ _______ _______ _____ _____    ______ ____
ROOT
ATOM      1  C   UNL     1       3.024   0.678  -0.750  0.00  0.00    +0.000 C 
ATOM      2  C   UNL     1       3.317   2.139  -0.516  0.00  0.00    +0.000 C 
ATOM      3  C   UNL     1       2.387   3.089   0.179  0.00  0.00    +0.000 C 
ATOM      4  N   UNL     1       1.302   3.268  -0.750  0.00  0.00    +0.000 N 
ATOM      5  C   UNL     1       1.345   2.431  -1.831  0.00  0.00    +0.000 C 
ATOM      6  O   UNL     1       0.521   2.333  -2.723  0.00  0.00    +0.000 OA
ATOM      7  C   UNL     1       2.625   1.692  -1.788  0.00  0.00    +0.000 C 
ATOM      8  H   UNL     1       0.512   3.884  -0.609  0.00  0.00    +0.000 HD
ENDROOT
BRANCH   1  10
ATOM      9  C   UNL     1       2.221  -0.331   1.375  0.00  0.00    +0.000 C 
ATOM     10  C   UNL     1       2.048  -0.028   0.082  0.00  0.00    +0.000 C 
ENDBRANCH   1  10
TORSDOF 1
