REMARK  Name = ligand_9152004
REMARK  2 active torsions:
REMARK  status: ('A' for Active; 'I' for Inactive)
REMARK    1  A    between atoms: C_1  and  C_2
REMARK    2  A    between atoms: C_2  and  C_3
REMARK                            x       y       z     vdW  Elec       q    Type
REMARK                         _______ _______ _______ _____ _____    ______ ____
ROOT
ATOM      1  C   UNL     1       2.990   1.173   0.968  0.00  0.00    +0.000 C 
ATOM      2  C   UNL     1       1.876   1.767   1.855  0.00  0.00    +0.000 C 
ATOM      3  C   UNL     1       0.949   2.729   1.128  0.00  0.00    +0.000 C 
ATOM      4  C   UNL     1       1.530   4.050   0.674  0.00  0.00    +0.000 C 
ATOM      5  N   UNL     1       2.772   4.403   0.517  0.00  0.00    +0.000 NA
ATOM      6  O   UNL     1       3.723   3.451   0.920  0.00  0.00    +0.000 OA
ATOM      7  C   UNL     1       3.659   2.266   0.127  0.00  0.00    +0.000 C 
ENDROOT
BRANCH   1   9
ATOM      8  C   UNL     1       2.047  -1.208   0.815  0.00  0.00    +0.000 C 
ATOM      9  C   UNL     1       2.544   0.016   0.058  0.00  0.00    +0.000 C 
ENDBRANCH   1   9
TORSDOF 1
