REMARK  Name = ligand_9152620
REMARK  3 active torsions:
REMARK  status: ('A' for Active; 'I' for Inactive)
REMARK    1  A    between atoms: C_1  and  C_2
REMARK    2  A    between atoms: C_2  and  C_3
REMARK    3  A    between atoms: C_4  and  C_8
REMARK                            x       y       z     vdW  Elec       q    Type
REMARK                         _______ _______ _______ _____ _____    ______ ____
ROOT
ATOM      1  C   UNL     1       2.976  -1.246  -0.916  0.00  0.00    +0.000 C 
ATOM      2  C   UNL     1       2.909  -2.552  -0.635  0.00  0.00    +0.000 C 
ATOM      3  C   UNL     1       3.382  -3.347  -1.791  0.00  0.00    +0.000 C 
ATOM      4  O   UNL     1       3.574  -2.397  -2.856  0.00  0.00    +0.000 OA
ATOM      5  C   UNL     1       3.523  -1.075  -2.291  0.00  0.00    +0.000 C 
ENDROOT
BRANCH   1   7
ATOM      6  C   UNL     1       3.739   0.863   0.209  0.00  0.00    +0.000 C 
ATOM      7  C   UNL     1       2.576  -0.073  -0.081  0.00  0.00    +0.000 C 
ENDBRANCH   1   7
BRANCH   2   8
ATOM      8  C   UNL     1       2.456  -3.135   0.571  0.00  0.00    +0.000 C 
ATOM      9  N   UNL     1       2.091  -3.619   1.559  0.00  0.00    +0.000 NA
ENDBRANCH   2   8
TORSDOF 2
