REMARK  Name = ligand_9152829
REMARK  4 active torsions:
REMARK  status: ('A' for Active; 'I' for Inactive)
REMARK    1  A    between atoms: C_1  and  C_2
REMARK    2  A    between atoms: C_2  and  C_3
REMARK    3  A    between atoms: C_4  and  C_5
REMARK    4  A    between atoms: C_5  and  O_6
REMARK                            x       y       z     vdW  Elec       q    Type
REMARK                         _______ _______ _______ _____ _____    ______ ____
ROOT
ATOM      1  C   UNL     1       3.186   0.698  -1.387  0.00  0.00    +0.000 C 
ATOM      2  C   UNL     1       2.977   2.156  -1.776  0.00  0.00    +0.000 C 
ATOM      3  N   UNL     1       2.567   1.073  -2.602  0.00  0.00    +0.000 N 
ATOM      4  C   UNL     1       1.251   0.873  -2.954  0.00  0.00    +0.000 C 
ATOM      5  O   UNL     1       0.337   1.681  -2.831  0.00  0.00    +0.000 OA
ENDROOT
BRANCH   1   7
ATOM      6  C   UNL     1       3.002   0.591   1.090  0.00  0.00    +0.000 C 
ATOM      7  C   UNL     1       2.442   0.098  -0.237  0.00  0.00    +0.000 C 
ENDBRANCH   1   7
BRANCH   2   8
ATOM      8  C   UNL     1       4.107   3.013  -2.233  0.00  0.00    +0.000 C 
BRANCH   8   9
ATOM      9  O   UNL     1       5.164   2.965  -1.284  0.00  0.00    +0.000 OA
ATOM     10  H   UNL     1       4.848   3.409  -0.479  0.00  0.00    +0.000 HD
ENDBRANCH   8   9
ENDBRANCH   2   8
TORSDOF 3
