REMARK  Name = ligand_9152435
REMARK  1 active torsions:
REMARK  status: ('A' for Active; 'I' for Inactive)
REMARK    1  A    between atoms: C_1  and  C_2
REMARK                            x       y       z     vdW  Elec       q    Type
REMARK                         _______ _______ _______ _____ _____    ______ ____
ROOT
ATOM      1  C   UNL     1       0.966  -0.042  -0.292  0.00  0.00    +0.000 C 
ATOM      2  C   UNL     1       2.461   0.008  -0.328  0.00  0.00    +0.000 C 
ATOM      3  C   UNL     1       3.213   0.860   0.383  0.00  0.00    +0.000 C 
ATOM      4  C   UNL     1       4.711   0.847   0.508  0.00  0.00    +0.000 C 
ATOM      5  C   UNL     1       4.895   1.370   1.929  0.00  0.00    +0.000 C 
ATOM      6  N   UNL     1       3.788   2.272   2.111  0.00  0.00    +0.000 NA
ATOM      7  N   UNL     1       3.581   2.928   3.338  0.00  0.00    +0.000 N 
ATOM      8  C   UNL     1       2.695   1.910   1.309  0.00  0.00    +0.000 C 
ATOM      9  O   UNL     1       1.555   2.333   1.383  0.00  0.00    +0.000 OA
ATOM     10  H   UNL     1       3.452   3.920   3.123  0.00  0.00    +0.000 HD
ATOM     11  H   UNL     1       2.652   2.640   3.673  0.00  0.00    +0.000 HD
ENDROOT
TORSDOF 0
