REMARK  Name = ligand_9152878
REMARK  2 active torsions:
REMARK  status: ('A' for Active; 'I' for Inactive)
REMARK    1  A    between atoms: C_1  and  C_2
REMARK    2  A    between atoms: C_4  and  C_5
REMARK                            x       y       z     vdW  Elec       q    Type
REMARK                         _______ _______ _______ _____ _____    ______ ____
ROOT
ATOM      1  C   UNL     1       1.009  -0.141   0.073  0.00  0.00    +0.000 C 
ATOM      2  C   UNL     1       2.499  -0.178   0.174  0.00  0.00    +0.000 C 
ATOM      3  C   UNL     1       3.209  -0.049   1.307  0.00  0.00    +0.000 C 
ATOM      4  C   UNL     1       4.696  -0.018   1.478  0.00  0.00    +0.000 C 
ATOM      5  C   UNL     1       5.442   0.856   0.482  0.00  0.00    +0.000 C 
ATOM      6  O   UNL     1       4.935   0.498   2.804  0.00  0.00    +0.000 OA
ATOM      7  N   UNL     1       3.692   0.447   3.473  0.00  0.00    +0.000 N 
ATOM      8  C   UNL     1       2.644   0.143   2.658  0.00  0.00    +0.000 C 
ATOM      9  O   UNL     1       1.476   0.043   2.988  0.00  0.00    +0.000 OA
ATOM     10  H   UNL     1       3.627   0.663   4.458  0.00  0.00    +0.000 HD
ENDROOT
TORSDOF 0
