REMARK  Name = ligand_9153960
REMARK  5 active torsions:
REMARK  status: ('A' for Active; 'I' for Inactive)
REMARK    1  A    between atoms: C_1  and  C_2
REMARK    2  A    between atoms: C_2  and  C_3
REMARK    3  A    between atoms: C_4  and  O_5
REMARK    4  A    between atoms: C_6  and  C_7
REMARK    5  A    between atoms: C_6  and  C_8
REMARK                            x       y       z     vdW  Elec       q    Type
REMARK                         _______ _______ _______ _____ _____    ______ ____
ROOT
ATOM      1  C   UNL     1       3.252   1.145  -0.013  0.00  0.00    +0.000 C 
ATOM      2  C   UNL     1       2.773   2.576  -0.045  0.00  0.00    +0.000 C 
ATOM      3  C   UNL     1       3.434   1.977  -1.280  0.00  0.00    +0.000 C 
ATOM      4  C   UNL     1       4.855   2.284  -1.663  0.00  0.00    +0.000 C 
ENDROOT
BRANCH   1   6
ATOM      5  C   UNL     1       1.389  -0.139   1.119  0.00  0.00    +0.000 C 
ATOM      6  C   UNL     1       2.362  -0.065  -0.042  0.00  0.00    +0.000 C 
ENDBRANCH   1   6
BRANCH   2   7
ATOM      7  O   UNL     1       3.549   3.551   0.680  0.00  0.00    +0.000 OA
ATOM      8  H   UNL     1       4.356   3.184   1.080  0.00  0.00    +0.000 HD
ENDBRANCH   2   7
BRANCH   3   9
ATOM      9  C   UNL     1       2.549   1.828  -2.414  0.00  0.00    +0.000 C 
ATOM     10  N   UNL     1       1.831   1.711  -3.316  0.00  0.00    +0.000 NA
ENDBRANCH   3   9
TORSDOF 3
