REMARK  Name = ligand_9154922
REMARK  4 active torsions:
REMARK  status: ('A' for Active; 'I' for Inactive)
REMARK    1  A    between atoms: C_1  and  C_2
REMARK    2  A    between atoms: C_2  and  C_3
REMARK    3  A    between atoms: C_6  and  N_7
REMARK    4  A    between atoms: N_8  and  O_9
REMARK                            x       y       z     vdW  Elec       q    Type
REMARK                         _______ _______ _______ _____ _____    ______ ____
ROOT
ATOM      1  C   UNL     1       3.033  -0.991   1.117  0.00  0.00    +0.000 A 
ATOM      2  N   UNL     1       3.595  -0.667   2.270  0.00  0.00    +0.000 NA
ATOM      3  C   UNL     1       3.751  -1.850   2.948  0.00  0.00    +0.000 A 
ATOM      4  C   UNL     1       3.279  -2.919   2.217  0.00  0.00    +0.000 A 
ATOM      5  N   UNL     1       2.868  -2.349   1.033  0.00  0.00    +0.000 N 
ENDROOT
BRANCH   4   6
ATOM      6  N   UNL     1       3.175  -4.237   2.499  0.00  0.00    +0.000 N 
ATOM      7  H   UNL     1       3.551  -4.603   3.372  0.00  0.00    +0.000 HD
ATOM      8  H   UNL     1       2.943  -4.964   1.829  0.00  0.00    +0.000 HD
ENDBRANCH   4   6
BRANCH   1  10
ATOM      9  C   UNL     1       1.152   0.381   0.257  0.00  0.00    +0.000 C 
ATOM     10  C   UNL     1       2.597  -0.050   0.052  0.00  0.00    +0.000 C 
ENDBRANCH   1  10
BRANCH   5  11
ATOM     11  O   UNL     1       2.329  -3.033  -0.052  0.00  0.00    +0.000 OA
ATOM     12  H   UNL     1       2.001  -3.816   0.420  0.00  0.00    +0.000 HD
ENDBRANCH   5  11
TORSDOF 3
