REMARK  Name = ligand_9154687
REMARK  3 active torsions:
REMARK  status: ('A' for Active; 'I' for Inactive)
REMARK    1  A    between atoms: C_1  and  C_2
REMARK    2  A    between atoms: C_2  and  C_3
REMARK    3  A    between atoms: C_3  and  N_4
REMARK                            x       y       z     vdW  Elec       q    Type
REMARK                         _______ _______ _______ _____ _____    ______ ____
ROOT
ATOM      1  C   UNL     1       3.194  -0.712  -1.095  0.00  0.00    +0.000 C 
ATOM      2  C   UNL     1       2.488  -1.490  -2.183  0.00  0.00    +0.000 C 
ATOM      3  O   UNL     1       1.164  -2.028  -1.935  0.00  0.00    +0.000 OA
ATOM      4  N   UNL     1       1.331  -3.174  -1.098  0.00  0.00    +0.000 NA
ATOM      5  C   UNL     1       2.558  -3.251  -0.717  0.00  0.00    +0.000 C 
ATOM      6  C   UNL     1       3.425  -2.206  -1.257  0.00  0.00    +0.000 C 
ENDROOT
BRANCH   1   7
ATOM      7  N   UNL     1       4.308   0.184  -1.516  0.00  0.00    +0.000 NA
ATOM      8  H   UNL     1       3.932   1.050  -1.906  0.00  0.00    +0.000 HD
ATOM      9  H   UNL     1       4.875  -0.233  -2.253  0.00  0.00    +0.000 HD
ENDBRANCH   1   7
BRANCH   1  11
ATOM     10  C   UNL     1       3.148   0.183   1.287  0.00  0.00    +0.000 C 
ATOM     11  C   UNL     1       2.343  -0.149   0.037  0.00  0.00    +0.000 C 
ENDBRANCH   1  11
TORSDOF 2
