REMARK  Name = ligand_9154948
REMARK  5 active torsions:
REMARK  status: ('A' for Active; 'I' for Inactive)
REMARK    1  A    between atoms: C_1  and  C_2
REMARK    2  A    between atoms: C_2  and  C_3
REMARK    3  A    between atoms: C_3  and  N_4
REMARK    4  A    between atoms: C_6  and  O_7
REMARK    5  A    between atoms: C_8  and  C_9
REMARK                            x       y       z     vdW  Elec       q    Type
REMARK                         _______ _______ _______ _____ _____    ______ ____
ROOT
ATOM      1  C   UNL     1       2.887   0.939   0.920  0.00  0.00    +0.000 C 
ATOM      2  C   UNL     1       2.038   1.453   2.112  0.00  0.00    +0.000 C 
ATOM      3  C   UNL     1       2.523   2.894   1.820  0.00  0.00    +0.000 C 
ATOM      4  C   UNL     1       2.976   2.419   0.409  0.00  0.00    +0.000 C 
ATOM      5  C   UNL     1       2.024   2.879  -0.692  0.00  0.00    +0.000 C 
ENDROOT
BRANCH   1   6
ATOM      6  N   UNL     1       4.209   0.558   1.461  0.00  0.00    +0.000 NA
ATOM      7  H   UNL     1       4.305  -0.449   1.610  0.00  0.00    +0.000 HD
ATOM      8  H   UNL     1       4.441   0.961   2.369  0.00  0.00    +0.000 HD
ENDBRANCH   1   6
BRANCH   1  10
ATOM      9  C   UNL     1       3.162  -0.461  -1.176  0.00  0.00    +0.000 C 
ATOM     10  C   UNL     1       2.296  -0.157   0.039  0.00  0.00    +0.000 C 
ENDBRANCH   1  10
BRANCH   3  11
ATOM     11  O   UNL     1       3.557   3.405   2.688  0.00  0.00    +0.000 OA
ATOM     12  H   UNL     1       4.387   3.037   2.340  0.00  0.00    +0.000 HD
ENDBRANCH   3  11
TORSDOF 3
