REMARK  Name = ligand_9155273
REMARK  4 active torsions:
REMARK  status: ('A' for Active; 'I' for Inactive)
REMARK    1  A    between atoms: C_1  and  C_2
REMARK    2  A    between atoms: C_2  and  C_3
REMARK    3  A    between atoms: C_5  and  O_6
REMARK    4  A    between atoms: N_8  and  C_9
REMARK                            x       y       z     vdW  Elec       q    Type
REMARK                         _______ _______ _______ _____ _____    ______ ____
ROOT
ATOM      1  C   UNL     1       3.012   0.863   1.097  0.00  0.00    +0.000 A 
ATOM      2  N   UNL     1       2.825   2.171   1.111  0.00  0.00    +0.000 NA
ATOM      3  C   UNL     1       3.280   2.579   2.322  0.00  0.00    +0.000 A 
ATOM      4  C   UNL     1       3.772   1.545   3.065  0.00  0.00    +0.000 A 
ATOM      5  N   UNL     1       3.613   0.447   2.266  0.00  0.00    +0.000 N 
ATOM      6  C   UNL     1       3.990  -0.900   2.613  0.00  0.00    +0.000 C 
ENDROOT
BRANCH   1   8
ATOM      7  C   UNL     1       1.153  -0.550   0.277  0.00  0.00    +0.000 C 
ATOM      8  C   UNL     1       2.564  -0.051   0.005  0.00  0.00    +0.000 C 
ENDBRANCH   1   8
BRANCH   3   9
ATOM      9  O   UNL     1       3.229   3.842   2.743  0.00  0.00    +0.000 OA
ATOM     10  H   UNL     1       2.813   4.337   2.018  0.00  0.00    +0.000 HD
ENDBRANCH   3   9
TORSDOF 2
