REMARK  Name = ligand_9155995
REMARK  5 active torsions:
REMARK  status: ('A' for Active; 'I' for Inactive)
REMARK    1  A    between atoms: C_1  and  C_2
REMARK    2  A    between atoms: C_2  and  C_3
REMARK    3  A    between atoms: C_5  and  C_6
REMARK    4  A    between atoms: N_7  and  O_8
REMARK    5  A    between atoms: O_8  and  C_9
REMARK                            x       y       z     vdW  Elec       q    Type
REMARK                         _______ _______ _______ _____ _____    ______ ____
ROOT
ATOM      1  C   UNL     1       2.828   0.069  -1.390  0.00  0.00    +0.000 C 
ATOM      2  O   UNL     1       2.253   1.168  -2.114  0.00  0.00    +0.000 OA
ATOM      3  C   UNL     1       1.977  -0.148  -2.623  0.00  0.00    +0.000 C 
ENDROOT
BRANCH   1   5
ATOM      4  C   UNL     1       2.933  -1.234   0.740  0.00  0.00    +0.000 C 
ATOM      5  C   UNL     1       2.317  -0.049   0.013  0.00  0.00    +0.000 C 
ENDBRANCH   1   5
BRANCH   3   6
ATOM      6  C   UNL     1       0.561  -0.531  -2.546  0.00  0.00    +0.000 C 
ATOM      7  N   UNL     1       0.284  -1.791  -2.477  0.00  0.00    +0.000 NA
BRANCH   7   8
ATOM      8  O   UNL     1      -1.109  -1.938  -2.410  0.00  0.00    +0.000 OA
ATOM      9  C   UNL     1      -1.412  -3.327  -2.345  0.00  0.00    +0.000 C 
ENDBRANCH   7   8
ENDBRANCH   3   6
TORSDOF 3
