REMARK  Name = ligand_9155483
REMARK  3 active torsions:
REMARK  status: ('A' for Active; 'I' for Inactive)
REMARK    1  A    between atoms: C_1  and  C_2
REMARK    2  A    between atoms: C_2  and  C_3
REMARK    3  A    between atoms: C_6  and  C_7
REMARK                            x       y       z     vdW  Elec       q    Type
REMARK                         _______ _______ _______ _____ _____    ______ ____
ROOT
ATOM      1  C   UNL     1       3.150  -0.285  -1.892  0.00  0.00    +0.000 C 
ATOM      2  N   UNL     1       2.878   0.686  -2.699  0.00  0.00    +0.000 NA
ATOM      3  N   UNL     1       3.571   0.904  -3.879  0.00  0.00    +0.000 NA
ATOM      4  C   UNL     1       4.023  -0.021  -4.666  0.00  0.00    +0.000 C 
ATOM      5  C   UNL     1       3.964  -1.511  -4.572  0.00  0.00    +0.000 C 
ATOM      6  C   UNL     1       3.378  -2.062  -3.306  0.00  0.00    +0.000 C 
ATOM      7  O   UNL     1       3.895  -1.380  -2.171  0.00  0.00    +0.000 OA
ENDROOT
BRANCH   1   9
ATOM      8  C   UNL     1       3.678   0.226   0.473  0.00  0.00    +0.000 C 
ATOM      9  C   UNL     1       2.619  -0.288  -0.485  0.00  0.00    +0.000 C 
ENDBRANCH   1   9
TORSDOF 1
