REMARK  Name = ligand_9155585
REMARK  3 active torsions:
REMARK  status: ('A' for Active; 'I' for Inactive)
REMARK    1  A    between atoms: C_1  and  C_2
REMARK    2  A    between atoms: C_2  and  C_3
REMARK    3  A    between atoms: N_5  and  C_6
REMARK                            x       y       z     vdW  Elec       q    Type
REMARK                         _______ _______ _______ _____ _____    ______ ____
ROOT
ATOM      1  C   UNL     1       3.013   1.427   0.709  0.00  0.00    +0.000 A 
ATOM      2  N   UNL     1       3.949   1.359   1.595  0.00  0.00    +0.000 NA
ATOM      3  N   UNL     1       4.344   2.636   1.801  0.00  0.00    +0.000 N 
ATOM      4  C   UNL     1       4.587   3.091   3.162  0.00  0.00    +0.000 C 
ATOM      5  O   UNL     1       3.412   3.577   1.173  0.00  0.00    +0.000 OA
ATOM      6  C   UNL     1       2.608   2.829   0.374  0.00  0.00    +0.000 A 
ATOM      7  O   UNL     1       1.734   3.171  -0.389  0.00  0.00    +0.000 OA
ENDROOT
BRANCH   1   9
ATOM      8  C   UNL     1       3.205  -0.096  -1.212  0.00  0.00    +0.000 C 
ATOM      9  C   UNL     1       2.386   0.264   0.018  0.00  0.00    +0.000 C 
ENDBRANCH   1   9
TORSDOF 1
