REMARK  Name = ligand_9156041
REMARK  1 active torsions:
REMARK  status: ('A' for Active; 'I' for Inactive)
REMARK    1  A    between atoms: C_2  and  C_3
REMARK                            x       y       z     vdW  Elec       q    Type
REMARK                         _______ _______ _______ _____ _____    ______ ____
ROOT
ATOM      1  C   UNL     1       3.253  -0.002  -0.906  0.00  0.00    +0.000 C 
ATOM      2  O   UNL     1       4.053   1.203  -1.207  0.00  0.00    +0.000 OA
ATOM      3  C   UNL     1       5.151   0.537  -0.865  0.00  0.00    +0.000 A 
ATOM      4  C   UNL     1       6.471   0.386  -0.735  0.00  0.00    +0.000 A 
ATOM      5  O   UNL     1       6.642  -0.952  -0.366  0.00  0.00    +0.000 OA
ATOM      6  N   UNL     1       5.353  -1.608  -0.337  0.00  0.00    +0.000 NA
ATOM      7  C   UNL     1       4.529  -0.593  -0.494  0.00  0.00    +0.000 A 
ENDROOT
BRANCH   1   9
ATOM      8  C   UNL     1       1.287   1.068   0.112  0.00  0.00    +0.000 C 
ATOM      9  C   UNL     1       2.261   0.151   0.196  0.00  0.00    +0.000 C 
ENDBRANCH   1   9
TORSDOF 1
