REMARK  Name = ligand_9156049
REMARK  1 active torsions:
REMARK  status: ('A' for Active; 'I' for Inactive)
REMARK    1  A    between atoms: C_2  and  C_3
REMARK                            x       y       z     vdW  Elec       q    Type
REMARK                         _______ _______ _______ _____ _____    ______ ____
ROOT
ATOM      1  C   UNL     1       3.386   0.603   1.110  0.00  0.00    +0.000 C 
ATOM      2  O   UNL     1       4.231   1.753   0.830  0.00  0.00    +0.000 OA
ATOM      3  C   UNL     1       5.304   1.112   1.340  0.00  0.00    +0.000 A 
ATOM      4  N   UNL     1       6.470   0.992   0.719  0.00  0.00    +0.000 NA
ATOM      5  N   UNL     1       6.535  -0.360   0.611  0.00  0.00    +0.000 N 
ATOM      6  N   UNL     1       5.409  -1.073   0.901  0.00  0.00    +0.000 NA
ATOM      7  C   UNL     1       4.654  -0.105   1.432  0.00  0.00    +0.000 A 
ATOM      8  H   UNL     1       7.374  -0.819   0.262  0.00  0.00    +0.000 HD
ENDROOT
BRANCH   1  10
ATOM      9  C   UNL     1       1.637   0.817  -0.598  0.00  0.00    +0.000 C 
ATOM     10  C   UNL     1       2.569   0.060  -0.002  0.00  0.00    +0.000 C 
ENDBRANCH   1  10
TORSDOF 1
