REMARK  Name = ligand_9156832
REMARK  3 active torsions:
REMARK  status: ('A' for Active; 'I' for Inactive)
REMARK    1  A    between atoms: C_1  and  C_2
REMARK    2  A    between atoms: C_2  and  C_3
REMARK    3  A    between atoms: C_2  and  C_4
REMARK                            x       y       z     vdW  Elec       q    Type
REMARK                         _______ _______ _______ _____ _____    ______ ____
ROOT
ATOM      1  C   UNL     1       2.990   1.044   1.004  0.00  0.00    +0.000 C 
ATOM      2  C   UNL     1       2.210   2.354   0.994  0.00  0.00    +0.000 C 
ATOM      3  C   UNL     1       2.963   3.525   0.399  0.00  0.00    +0.000 C 
ATOM      4  C   UNL     1       4.321   3.168  -0.114  0.00  0.00    +0.000 C 
ATOM      5  N   UNL     1       4.983   2.096   0.182  0.00  0.00    +0.000 NA
ATOM      6  O   UNL     1       4.390   1.275   1.156  0.00  0.00    +0.000 OA
ENDROOT
BRANCH   1   8
ATOM      7  C   UNL     1       2.818   0.526  -1.537  0.00  0.00    +0.000 C 
ATOM      8  C   UNL     1       2.615   0.031  -0.106  0.00  0.00    +0.000 C 
ATOM      9  C   UNL     1       3.359  -1.295   0.087  0.00  0.00    +0.000 C 
ENDBRANCH   1   8
TORSDOF 1
