REMARK  Name = ligand_9157063
REMARK  4 active torsions:
REMARK  status: ('A' for Active; 'I' for Inactive)
REMARK    1  A    between atoms: C_1  and  C_2
REMARK    2  A    between atoms: C_2  and  C_3
REMARK    3  A    between atoms: C_3  and  C_4
REMARK    4  A    between atoms: C_6  and  O_7
REMARK                            x       y       z     vdW  Elec       q    Type
REMARK                         _______ _______ _______ _____ _____    ______ ____
ROOT
ATOM      1  C   UNL     1       4.660  -0.327  -1.314  0.00  0.00    +0.000 C 
ATOM      2  C   UNL     1       5.209  -1.614  -0.692  0.00  0.00    +0.000 C 
ATOM      3  C   UNL     1       6.476  -1.196   0.052  0.00  0.00    +0.000 C 
ATOM      4  C   UNL     1       6.611   0.303  -0.205  0.00  0.00    +0.000 C 
ATOM      5  N   UNL     1       5.252   0.745  -0.511  0.00  0.00    +0.000 NA
ATOM      6  H   UNL     1       5.266   1.624  -1.028  0.00  0.00    +0.000 HD
ENDROOT
BRANCH   3   7
ATOM      7  O   UNL     1       7.607  -1.921  -0.412  0.00  0.00    +0.000 OA
ATOM      8  H   UNL     1       7.687  -1.771  -1.370  0.00  0.00    +0.000 HD
ENDBRANCH   3   7
BRANCH   1   9
ATOM      9  C   UNL     1       3.127  -0.282  -1.302  0.00  0.00    +0.000 C 
BRANCH   9  11
ATOM     10  C   UNL     1       1.036   0.995  -1.896  0.00  0.00    +0.000 C 
ATOM     11  C   UNL     1       2.557   0.992  -1.930  0.00  0.00    +0.000 C 
ENDBRANCH   9  11
ENDBRANCH   1   9
TORSDOF 3
