REMARK  Name = ligand_9157971
REMARK  4 active torsions:
REMARK  status: ('A' for Active; 'I' for Inactive)
REMARK    1  A    between atoms: C_1  and  C_2
REMARK    2  A    between atoms: C_2  and  C_3
REMARK    3  A    between atoms: C_3  and  C_4
REMARK    4  A    between atoms: C_6  and  C_7
REMARK                            x       y       z     vdW  Elec       q    Type
REMARK                         _______ _______ _______ _____ _____    ______ ____
ROOT
ATOM      1  C   UNL     1       4.614  -1.180   0.774  0.00  0.00    +0.000 A 
ATOM      2  N   UNL     1       5.360  -0.309   1.424  0.00  0.00    +0.000 NA
ATOM      3  C   UNL     1       6.646  -0.722   1.174  0.00  0.00    +0.000 A 
ATOM      4  C   UNL     1       7.803   0.008   1.726  0.00  0.00    +0.000 C 
ATOM      5  C   UNL     1       6.620  -1.844   0.379  0.00  0.00    +0.000 A 
ATOM      6  O   UNL     1       5.318  -2.149   0.116  0.00  0.00    +0.000 OA
ENDROOT
BRANCH   1   7
ATOM      7  C   UNL     1       3.135  -1.232   0.669  0.00  0.00    +0.000 C 
BRANCH   7   9
ATOM      8  C   UNL     1       1.072  -0.000  -0.089  0.00  0.00    +0.000 C 
ATOM      9  C   UNL     1       2.587   0.040   0.024  0.00  0.00    +0.000 C 
ENDBRANCH   7   9
ENDBRANCH   1   7
TORSDOF 2
