REMARK  Name = ligand_9157714
REMARK  2 active torsions:
REMARK  status: ('A' for Active; 'I' for Inactive)
REMARK    1  A    between atoms: C_1  and  C_2
REMARK    2  A    between atoms: C_3  and  C_4
REMARK                            x       y       z     vdW  Elec       q    Type
REMARK                         _______ _______ _______ _____ _____    ______ ____
ROOT
ATOM      1  C   UNL     1       5.162  -0.025  -0.018  0.00  0.00    +0.000 A 
ATOM      2  C   UNL     1       6.007   1.055  -0.019  0.00  0.00    +0.000 A 
ATOM      3  O   UNL     1       7.291   0.582  -0.014  0.00  0.00    +0.000 OA
ATOM      4  C   UNL     1       7.142  -0.774  -0.010  0.00  0.00    +0.000 A 
ATOM      5  N   UNL     1       8.256  -1.499  -0.006  0.00  0.00    +0.000 N 
ATOM      6  N   UNL     1       5.892  -1.189  -0.012  0.00  0.00    +0.000 NA
ATOM      7  H   UNL     1       9.177  -1.080   0.007  0.00  0.00    +0.000 HD
ATOM      8  H   UNL     1       8.200  -2.508   0.002  0.00  0.00    +0.000 HD
ENDROOT
BRANCH   1  11
ATOM      9  C   UNL     1       0.905  -0.023  -0.020  0.00  0.00    +0.000 C 
ATOM     10  C   UNL     1       2.425  -0.023  -0.020  0.00  0.00    +0.000 C 
ATOM     11  C   UNL     1       3.728  -0.023  -0.020  0.00  0.00    +0.000 C 
ENDBRANCH   1  11
TORSDOF 1
