REMARK  Name = ligand_9157095
REMARK  2 active torsions:
REMARK  status: ('A' for Active; 'I' for Inactive)
REMARK    1  A    between atoms: C_2  and  C_3
REMARK    2  A    between atoms: C_3  and  C_4
REMARK                            x       y       z     vdW  Elec       q    Type
REMARK                         _______ _______ _______ _____ _____    ______ ____
ROOT
ATOM      1  C   UNL     1       4.623   0.319  -1.004  0.00  0.00    +0.000 C 
ATOM      2  C   UNL     1       5.315   1.642  -1.345  0.00  0.00    +0.000 C 
ATOM      3  C   UNL     1       6.233   1.508  -2.542  0.00  0.00    +0.000 C 
ATOM      4  O   UNL     1       7.055   0.363  -2.344  0.00  0.00    +0.000 OA
ATOM      5  N   UNL     1       6.333  -0.842  -2.428  0.00  0.00    +0.000 NA
ATOM      6  C   UNL     1       5.221  -0.846  -1.760  0.00  0.00    +0.000 C 
ENDROOT
BRANCH   1   7
ATOM      7  C   UNL     1       3.111   0.326  -1.297  0.00  0.00    +0.000 C 
BRANCH   7   9
ATOM      8  C   UNL     1       1.595   2.311  -1.102  0.00  0.00    +0.000 C 
ATOM      9  C   UNL     1       2.350   1.366  -0.525  0.00  0.00    +0.000 C 
ENDBRANCH   7   9
ENDBRANCH   1   7
TORSDOF 2
