REMARK  Name = ligand_9158118
REMARK  3 active torsions:
REMARK  status: ('A' for Active; 'I' for Inactive)
REMARK    1  A    between atoms: C_1  and  C_2
REMARK    2  A    between atoms: C_3  and  C_4
REMARK    3  A    between atoms: C_4  and  N_5
REMARK                            x       y       z     vdW  Elec       q    Type
REMARK                         _______ _______ _______ _____ _____    ______ ____
ROOT
ATOM      1  C   UNL     1       5.187   0.072  -0.027  0.00  0.00    +0.000 C 
ATOM      2  C   UNL     1       5.940  -0.942   0.845  0.00  0.00    +0.000 C 
ATOM      3  O   UNL     1       6.786   0.117   1.380  0.00  0.00    +0.000 OA
ATOM      4  C   UNL     1       5.942   1.097   0.906  0.00  0.00    +0.000 C 
ATOM      5  O   UNL     1       5.956   2.269   1.183  0.00  0.00    +0.000 OA
ENDROOT
BRANCH   1   8
ATOM      6  C   UNL     1       0.938   0.073   0.027  0.00  0.00    +0.000 C 
ATOM      7  C   UNL     1       2.458   0.073   0.027  0.00  0.00    +0.000 C 
ATOM      8  C   UNL     1       3.762   0.073   0.027  0.00  0.00    +0.000 C 
ENDBRANCH   1   8
BRANCH   1   9
ATOM      9  N   UNL     1       5.625   0.015  -1.431  0.00  0.00    +0.000 NA
ATOM     10  H   UNL     1       5.144  -0.698  -1.977  0.00  0.00    +0.000 HD
ATOM     11  H   UNL     1       6.625  -0.119  -1.557  0.00  0.00    +0.000 HD
ENDBRANCH   1   9
TORSDOF 2
