REMARK  Name = ligand_9158038
REMARK  3 active torsions:
REMARK  status: ('A' for Active; 'I' for Inactive)
REMARK    1  A    between atoms: C_1  and  C_2
REMARK    2  A    between atoms: C_2  and  C_3
REMARK    3  A    between atoms: C_2  and  C_4
REMARK                            x       y       z     vdW  Elec       q    Type
REMARK                         _______ _______ _______ _____ _____    ______ ____
ROOT
ATOM      1  C   UNL     1       3.158   1.350  -0.420  0.00  0.00    +0.000 C 
ATOM      2  N   UNL     1       2.717   2.355   0.601  0.00  0.00    +0.000 NA
ATOM      3  C   UNL     1       2.228   3.327  -0.091  0.00  0.00    +0.000 C 
ATOM      4  N   UNL     1       2.234   3.196  -1.422  0.00  0.00    +0.000 N 
ATOM      5  C   UNL     1       2.787   2.000  -1.745  0.00  0.00    +0.000 C 
ATOM      6  O   UNL     1       2.955   1.577  -2.873  0.00  0.00    +0.000 OA
ATOM      7  H   UNL     1       1.901   3.855  -2.108  0.00  0.00    +0.000 HD
ENDROOT
BRANCH   1   9
ATOM      8  C   UNL     1       0.980   0.012  -0.144  0.00  0.00    +0.000 C 
ATOM      9  C   UNL     1       2.511  -0.014  -0.140  0.00  0.00    +0.000 C 
ATOM     10  C   UNL     1       3.018  -1.084  -1.110  0.00  0.00    +0.000 C 
ENDBRANCH   1   9
TORSDOF 1
