REMARK  Name = ligand_9158217
REMARK  3 active torsions:
REMARK  status: ('A' for Active; 'I' for Inactive)
REMARK    1  A    between atoms: C_1  and  C_2
REMARK    2  A    between atoms: C_3  and  C_4
REMARK    3  A    between atoms: C_5  and  O_6
REMARK                            x       y       z     vdW  Elec       q    Type
REMARK                         _______ _______ _______ _____ _____    ______ ____
ROOT
ATOM      1  C   UNL     1       4.572   0.872  -0.731  0.00  0.00    +0.000 A 
ATOM      2  C   UNL     1       5.488   1.869  -0.996  0.00  0.00    +0.000 A 
ATOM      3  N   UNL     1       6.758   1.389  -0.873  0.00  0.00    +0.000 NA
ATOM      4  N   UNL     1       6.680   0.107  -0.543  0.00  0.00    +0.000 NA
ATOM      5  N   UNL     1       5.377  -0.206  -0.466  0.00  0.00    +0.000 N 
ATOM      6  H   UNL     1       5.122  -1.162  -0.251  0.00  0.00    +0.000 HD
ENDROOT
BRANCH   1   9
ATOM      7  C   UNL     1       0.982  -0.112   0.054  0.00  0.00    +0.000 C 
ATOM      8  C   UNL     1       2.478  -0.064   0.051  0.00  0.00    +0.000 C 
ATOM      9  C   UNL     1       3.162   0.775  -0.743  0.00  0.00    +0.000 C 
ENDBRANCH   1   9
BRANCH   2  10
ATOM     10  O   UNL     1       5.168   3.132  -1.316  0.00  0.00    +0.000 OA
ATOM     11  H   UNL     1       4.208   3.252  -1.260  0.00  0.00    +0.000 HD
ENDBRANCH   2  10
TORSDOF 2
