REMARK  Name = ligand_9158123
REMARK  1 active torsions:
REMARK  status: ('A' for Active; 'I' for Inactive)
REMARK    1  A    between atoms: C_2  and  C_3
REMARK                            x       y       z     vdW  Elec       q    Type
REMARK                         _______ _______ _______ _____ _____    ______ ____
ROOT
ATOM      1  C   UNL     1       2.960   1.287  -0.343  0.00  0.00    +0.000 C 
ATOM      2  C   UNL     1       2.593   2.463   0.174  0.00  0.00    +0.000 C 
ATOM      3  N   UNL     1       3.215   3.645  -0.098  0.00  0.00    +0.000 N 
ATOM      4  C   UNL     1       2.618   4.697   0.556  0.00  0.00    +0.000 C 
ATOM      5  O   UNL     1       2.918   5.874   0.520  0.00  0.00    +0.000 OA
ATOM      6  C   UNL     1       1.506   4.111   1.330  0.00  0.00    +0.000 C 
ATOM      7  C   UNL     1       1.526   2.794   1.080  0.00  0.00    +0.000 C 
ATOM      8  H   UNL     1       4.009   3.771  -0.707  0.00  0.00    +0.000 HD
ENDROOT
BRANCH   1  10
ATOM      9  C   UNL     1       2.711  -1.128  -0.657  0.00  0.00    +0.000 C 
ATOM     10  C   UNL     1       2.313   0.018  -0.091  0.00  0.00    +0.000 C 
ENDBRANCH   1  10
TORSDOF 1
