REMARK  Name = ligand_9159984
REMARK  6 active torsions:
REMARK  status: ('A' for Active; 'I' for Inactive)
REMARK    1  A    between atoms: C_1  and  C_2
REMARK    2  A    between atoms: C_2  and  C_3
REMARK    3  A    between atoms: C_5  and  CA_6
REMARK    4  A    between atoms: CA_6  and  N_7
REMARK    5  A    between atoms: CA_6  and  C_8
REMARK    6  A    between atoms: C_8  and  O_9
REMARK                            x       y       z     vdW  Elec       q    Type
REMARK                         _______ _______ _______ _____ _____    ______ ____
ROOT
ATOM      1  CA  UNL     1       4.988  -0.300  -0.907  0.00  0.00    +0.000 C 
ENDROOT
BRANCH   1   4
ATOM      2  C   UNL     1       1.160   0.301  -0.355  0.00  0.00    +0.000 C 
ATOM      3  C   UNL     1       2.682   0.377  -0.282  0.00  0.00    +0.000 C 
ATOM      4  C   UNL     1       3.690   0.393  -1.183  0.00  0.00    +0.000 C 
BRANCH   3   5
ATOM      5  C   UNL     1       3.032   0.052   1.129  0.00  0.00    +0.000 C 
ATOM      6  C   UNL     1       3.837   0.787   1.938  0.00  0.00    +0.000 C 
ENDBRANCH   3   5
ENDBRANCH   1   4
BRANCH   1   7
ATOM      7  N   UNL     1       5.255  -1.587  -0.321  0.00  0.00    +0.000 NA
ATOM      8  H1  UNL     1       5.184  -2.309  -1.047  0.00  0.00    +0.000 HD
ATOM      9  H2  UNL     1       4.577  -1.815   0.352  0.00  0.00    +0.000 HD
ENDBRANCH   1   7
BRANCH   1  10
ATOM     10  C   UNL     1       3.977   0.981  -2.637  0.00  0.00    +0.000 C 
BRANCH  10  11
ATOM     11  O   UNL     1       3.870  -0.005  -3.671  0.00  0.00    +0.000 OA
ATOM     12  H   UNL     1       4.669  -0.583  -3.648  0.00  0.00    +0.000 HD
ENDBRANCH  10  11
ENDBRANCH   1  10
TORSDOF 5
