REMARK  Name = ligand_9159014
REMARK  2 active torsions:
REMARK  status: ('A' for Active; 'I' for Inactive)
REMARK    1  A    between atoms: C_2  and  C_3
REMARK    2  A    between atoms: C_3  and  C_5
REMARK                            x       y       z     vdW  Elec       q    Type
REMARK                         _______ _______ _______ _____ _____    ______ ____
ROOT
ATOM      1  C   UNL     1       4.893  -1.488   1.002  0.00  0.00    +0.000 A 
ATOM      2  N   UNL     1       5.552  -1.790  -0.119  0.00  0.00    +0.000 NA
ATOM      3  O   UNL     1       6.807  -1.202   0.027  0.00  0.00    +0.000 OA
ATOM      4  N   UNL     1       6.914  -0.543   1.251  0.00  0.00    +0.000 NA
ATOM      5  C   UNL     1       5.731  -0.732   1.833  0.00  0.00    +0.000 A 
ENDROOT
BRANCH   1   6
ATOM      6  C   UNL     1       2.410  -1.377   1.000  0.00  0.00    +0.000 C 
ATOM      7  C   UNL     1       3.584  -1.944   1.326  0.00  0.00    +0.000 C 
BRANCH   6   9
ATOM      8  C   UNL     1       0.995   0.329  -0.018  0.00  0.00    +0.000 C 
ATOM      9  C   UNL     1       2.213  -0.162   0.241  0.00  0.00    +0.000 C 
ENDBRANCH   6   9
ENDBRANCH   1   6
TORSDOF 2
