REMARK  Name = ligand_9160493
REMARK  5 active torsions:
REMARK  status: ('A' for Active; 'I' for Inactive)
REMARK    1  A    between atoms: C_1  and  C_2
REMARK    2  A    between atoms: C_2  and  C_3
REMARK    3  A    between atoms: C_2  and  C_8
REMARK    4  A    between atoms: C_3  and  C_4
REMARK    5  A    between atoms: C_5  and  C_6
REMARK                            x       y       z     vdW  Elec       q    Type
REMARK                         _______ _______ _______ _____ _____    ______ ____
ROOT
ATOM      1  C   UNL     1       2.971  -1.433  -0.237  0.00  0.00    +0.000 C 
ENDROOT
BRANCH   1   3
ATOM      2  C   UNL     1       0.914  -0.002   0.081  0.00  0.00    +0.000 C 
ATOM      3  C   UNL     1       2.440  -0.021   0.056  0.00  0.00    +0.000 C 
BRANCH   3   4
ATOM      4  C   UNL     1       2.946   0.935  -1.012  0.00  0.00    +0.000 C 
ATOM      5  N   UNL     1       3.367   1.728  -1.898  0.00  0.00    +0.000 NA
ENDBRANCH   3   4
ENDBRANCH   1   3
BRANCH   1   6
ATOM      6  C   UNL     1       4.445  -1.478  -0.252  0.00  0.00    +0.000 C 
ATOM      7  C   UNL     1       5.645  -1.482  -0.317  0.00  0.00    +0.000 C 
BRANCH   7   8
ATOM      8  C   UNL     1       7.083  -1.459  -0.433  0.00  0.00    +0.000 C 
ATOM      9  O   UNL     1       7.757  -2.412  -0.068  0.00  0.00    +0.000 OA
ENDBRANCH   7   8
ENDBRANCH   1   6
TORSDOF 4
