REMARK  Name = ligand_9161688
REMARK  6 active torsions:
REMARK  status: ('A' for Active; 'I' for Inactive)
REMARK    1  A    between atoms: C_1  and  C_2
REMARK    2  A    between atoms: C_2  and  C_3
REMARK    3  A    between atoms: C_3  and  C_4
REMARK    4  A    between atoms: C_3  and  C_5
REMARK    5  A    between atoms: C_5  and  C_8
REMARK    6  A    between atoms: N_6  and  O_7
REMARK                            x       y       z     vdW  Elec       q    Type
REMARK                         _______ _______ _______ _____ _____    ______ ____
ROOT
ATOM      1  C   UNL     1       4.670   0.284  -1.383  0.00  0.00    +0.000 C 
ATOM      2  N   UNL     1       5.560   0.929  -0.699  0.00  0.00    +0.000 NA
ENDROOT
BRANCH   1   3
ATOM      3  C   UNL     1       3.155   0.359  -1.388  0.00  0.00    +0.000 C 
ATOM      4  C   UNL     1       2.694   1.720  -1.914  0.00  0.00    +0.000 C 
BRANCH   3   6
ATOM      5  C   UNL     1       2.867  -1.311   0.542  0.00  0.00    +0.000 C 
ATOM      6  C   UNL     1       2.495   0.047  -0.037  0.00  0.00    +0.000 C 
ENDBRANCH   3   6
ENDBRANCH   1   3
BRANCH   2   7
ATOM      7  O   UNL     1       5.000   1.847   0.189  0.00  0.00    +0.000 OA
ATOM      8  H   UNL     1       5.793   2.234   0.607  0.00  0.00    +0.000 HD
ENDBRANCH   2   7
BRANCH   1   9
ATOM      9  C   UNL     1       5.324  -0.624  -2.299  0.00  0.00    +0.000 C 
ATOM     10  C   UNL     1       5.883  -1.364  -3.060  0.00  0.00    +0.000 C 
ENDBRANCH   1   9
TORSDOF 4
