REMARK  Name = ligand_9161459
REMARK  2 active torsions:
REMARK  status: ('A' for Active; 'I' for Inactive)
REMARK    1  A    between atoms: C_2  and  C_3
REMARK    2  A    between atoms: C_3  and  C_5
REMARK                            x       y       z     vdW  Elec       q    Type
REMARK                         _______ _______ _______ _____ _____    ______ ____
ROOT
ATOM      1  C   UNL     1       4.584   0.860   0.880  0.00  0.00    +0.000 C 
ATOM      2  N   UNL     1       5.292  -0.203   0.729  0.00  0.00    +0.000 NA
ATOM      3  N   UNL     1       5.305   2.011   1.037  0.00  0.00    +0.000 N 
ATOM      4  C   UNL     1       4.928   3.330   0.938  0.00  0.00    +0.000 C 
ATOM      5  O   UNL     1       5.678   4.266   1.179  0.00  0.00    +0.000 OA
ATOM      6  H   UNL     1       4.683  -1.020   0.608  0.00  0.00    +0.000 HD
ATOM      7  H   UNL     1       6.294   1.860   1.190  0.00  0.00    +0.000 HD
ENDROOT
BRANCH   1   8
ATOM      8  C   UNL     1       3.082   0.885   0.899  0.00  0.00    +0.000 C 
ATOM      9  C   UNL     1       2.460   1.626   1.833  0.00  0.00    +0.000 C 
BRANCH   8  11
ATOM     10  C   UNL     1       1.180  -0.513   0.131  0.00  0.00    +0.000 C 
ATOM     11  C   UNL     1       2.367   0.075  -0.072  0.00  0.00    +0.000 C 
ENDBRANCH   8  11
ENDBRANCH   1   8
TORSDOF 2
