REMARK  Name = ligand_9162385
REMARK  6 active torsions:
REMARK  status: ('A' for Active; 'I' for Inactive)
REMARK    1  A    between atoms: C_1  and  C_2
REMARK    2  A    between atoms: C_3  and  C_4
REMARK    3  A    between atoms: C_4  and  C_5
REMARK    4  A    between atoms: C_4  and  C_7
REMARK    5  A    between atoms: C_5  and  O_6
REMARK    6  A    between atoms: N_8  and  N_9
REMARK                            x       y       z     vdW  Elec       q    Type
REMARK                         _______ _______ _______ _____ _____    ______ ____
ROOT
ATOM      1  C   UNL     1       5.286  -0.068  -0.044  0.00  0.00    +0.000 C 
ENDROOT
BRANCH   1   4
ATOM      2  C   UNL     1       0.942  -0.068  -0.044  0.00  0.00    +0.000 C 
ATOM      3  C   UNL     1       2.462  -0.068  -0.044  0.00  0.00    +0.000 C 
ATOM      4  C   UNL     1       3.766  -0.068  -0.044  0.00  0.00    +0.000 C 
ENDBRANCH   1   4
BRANCH   1   5
ATOM      5  C   UNL     1       5.838   1.019  -0.930  0.00  0.00    +0.000 C 
ATOM      6  N   UNL     1       6.606   1.959  -0.475  0.00  0.00    +0.000 NA
BRANCH   6   7
ATOM      7  N   UNL     1       7.142   2.759  -1.394  0.00  0.00    +0.000 N 
ATOM      8  H   UNL     1       7.568   3.617  -1.025  0.00  0.00    +0.000 HD
ATOM      9  H   UNL     1       6.711   2.859  -2.316  0.00  0.00    +0.000 HD
ENDBRANCH   6   7
ENDBRANCH   1   5
BRANCH   1  10
ATOM     10  C   UNL     1       5.798  -1.430  -0.514  0.00  0.00    +0.000 C 
BRANCH  10  11
ATOM     11  O   UNL     1       5.380  -1.733  -1.842  0.00  0.00    +0.000 OA
ATOM     12  H   UNL     1       4.392  -1.698  -1.856  0.00  0.00    +0.000 HD
ENDBRANCH  10  11
ENDBRANCH   1  10
TORSDOF 5
