REMARK  Name = ligand_916287
REMARK  1 active torsions:
REMARK  status: ('A' for Active; 'I' for Inactive)
REMARK    1  A    between atoms: C_1  and  C_2
REMARK                            x       y       z     vdW  Elec       q    Type
REMARK                         _______ _______ _______ _____ _____    ______ ____
ROOT
ATOM      1  C   UNL     1       1.112   0.201   0.032  0.00  0.00    +0.000 C 
ATOM      2  C   UNL     1       2.573  -0.121   0.344  0.00  0.00    +0.000 C 
ATOM      3  C   UNL     1       2.849  -1.617   0.131  0.00  0.00    +0.000 C 
ATOM      4  C   UNL     1       3.952  -2.214  -0.369  0.00  0.00    +0.000 C 
ATOM      5  C   UNL     1       5.213  -1.645  -0.831  0.00  0.00    +0.000 C 
ATOM      6  C   UNL     1       5.653  -0.387  -0.625  0.00  0.00    +0.000 C 
ATOM      7  C   UNL     1       4.901   0.602   0.134  0.00  0.00    +0.000 C 
ATOM      8  N   UNL     1       4.335   1.864  -0.239  0.00  0.00    +0.000 NA
ATOM      9  C   UNL     1       3.495   0.712  -0.485  0.00  0.00    +0.000 C 
ATOM     10  H   UNL     1       4.765   2.202  -1.099  0.00  0.00    +0.000 HD
ENDROOT
TORSDOF 0
