REMARK  Name = ligand_9162834
REMARK  6 active torsions:
REMARK  status: ('A' for Active; 'I' for Inactive)
REMARK    1  A    between atoms: C_1  and  C_2
REMARK    2  A    between atoms: C_2  and  C_3
REMARK    3  A    between atoms: C_3  and  C_4
REMARK    4  A    between atoms: C_3  and  O_6
REMARK    5  A    between atoms: C_4  and  C_5
REMARK    6  A    between atoms: O_6  and  N_7
REMARK                            x       y       z     vdW  Elec       q    Type
REMARK                         _______ _______ _______ _____ _____    ______ ____
ROOT
ATOM      1  O   UNL     1       4.476   0.781   1.302  0.00  0.00    +0.000 OA
ENDROOT
BRANCH   1   2
ATOM      2  N   UNL     1       5.023   1.508   0.238  0.00  0.00    +0.000 N 
ATOM      3  C   UNL     1       6.175   0.937  -0.236  0.00  0.00    +0.000 C 
ATOM      4  N   UNL     1       6.553  -0.283  -0.079  0.00  0.00    +0.000 NA
ATOM      5  H   UNL     1       5.063   2.511   0.397  0.00  0.00    +0.000 HD
ATOM      6  H   UNL     1       5.825  -0.731   0.494  0.00  0.00    +0.000 HD
ENDBRANCH   1   2
BRANCH   1   7
ATOM      7  C   UNL     1       3.038   0.805   1.187  0.00  0.00    +0.000 C 
BRANCH   7   9
ATOM      8  C   UNL     1       1.093  -0.079  -0.250  0.00  0.00    +0.000 C 
ATOM      9  C   UNL     1       2.598   0.039  -0.076  0.00  0.00    +0.000 C 
ENDBRANCH   7   9
BRANCH   7  10
ATOM     10  C   UNL     1       2.499   0.157   2.474  0.00  0.00    +0.000 C 
ATOM     11  C   UNL     1       2.861   0.947   3.729  0.00  0.00    +0.000 C 
ENDBRANCH   7  10
ENDBRANCH   1   7
TORSDOF 4
