REMARK  Name = ligand_9162841
REMARK  6 active torsions:
REMARK  status: ('A' for Active; 'I' for Inactive)
REMARK    1  A    between atoms: C_1  and  C_2
REMARK    2  A    between atoms: C_2  and  C_3
REMARK    3  A    between atoms: C_3  and  CA_4
REMARK    4  A    between atoms: CA_4  and  C_5
REMARK    5  A    between atoms: CA_4  and  N_7
REMARK    6  A    between atoms: C_5  and  O_6
REMARK                            x       y       z     vdW  Elec       q    Type
REMARK                         _______ _______ _______ _____ _____    ______ ____
ROOT
ATOM      1  CA  UNL     1       4.496   1.043  -0.933  0.00  0.00    +0.000 C 
ENDROOT
BRANCH   1   2
ATOM      2  N   UNL     1       4.996   2.158  -1.734  0.00  0.00    +0.000 N 
ATOM      3  C   UNL     1       6.172   2.813  -1.545  0.00  0.00    +0.000 C 
ATOM      4  N   UNL     1       7.079   2.568  -0.677  0.00  0.00    +0.000 NA
ATOM      5  H   UNL     1       4.448   2.409  -2.552  0.00  0.00    +0.000 HD
ATOM      6  H   UNL     1       6.804   1.787  -0.077  0.00  0.00    +0.000 HD
ENDBRANCH   1   2
BRANCH   1   7
ATOM      7  C   UNL     1       2.956   1.081  -0.942  0.00  0.00    +0.000 C 
BRANCH   7   9
ATOM      8  C   UNL     1       0.802   0.094  -0.056  0.00  0.00    +0.000 C 
ATOM      9  C   UNL     1       2.320   0.012  -0.048  0.00  0.00    +0.000 C 
ENDBRANCH   7   9
ENDBRANCH   1   7
BRANCH   1  10
ATOM     10  C   UNL     1       5.063  -0.288  -1.471  0.00  0.00    +0.000 C 
BRANCH  10  11
ATOM     11  O   UNL     1       6.488  -0.317  -1.423  0.00  0.00    +0.000 OA
ATOM     12  H   UNL     1       6.812   0.482  -1.883  0.00  0.00    +0.000 HD
ENDBRANCH  10  11
ENDBRANCH   1  10
TORSDOF 5
