REMARK  Name = ligand_916222
REMARK  2 active torsions:
REMARK  status: ('A' for Active; 'I' for Inactive)
REMARK    1  A    between atoms: C_1  and  C_2
REMARK    2  A    between atoms: N_8  and  N_9
REMARK                            x       y       z     vdW  Elec       q    Type
REMARK                         _______ _______ _______ _____ _____    ______ ____
ROOT
ATOM      1  C   UNL     1       0.830  -0.159   0.085  0.00  0.00    +0.000 C 
ATOM      2  C   UNL     1       2.358  -0.118   0.212  0.00  0.00    +0.000 C 
ATOM      3  C   UNL     1       2.992  -1.379  -0.397  0.00  0.00    +0.000 C 
ATOM      4  C   UNL     1       3.765  -1.198  -1.655  0.00  0.00    +0.000 C 
ATOM      5  C   UNL     1       4.042  -0.029  -2.234  0.00  0.00    +0.000 C 
ATOM      6  C   UNL     1       3.601   1.249  -1.634  0.00  0.00    +0.000 C 
ATOM      7  C   UNL     1       2.911   1.228  -0.280  0.00  0.00    +0.000 C 
ATOM      8  N   UNL     1       3.906   2.338  -2.295  0.00  0.00    +0.000 NA
ENDROOT
BRANCH   8   9
ATOM      9  N   UNL     1       3.547   3.524  -1.760  0.00  0.00    +0.000 N 
ATOM     10  H   UNL     1       4.013   4.284  -2.264  0.00  0.00    +0.000 HD
ATOM     11  H   UNL     1       3.816   3.620  -0.781  0.00  0.00    +0.000 HD
ENDBRANCH   8   9
TORSDOF 1
