REMARK  Name = ligand_9162774
REMARK  4 active torsions:
REMARK  status: ('A' for Active; 'I' for Inactive)
REMARK    1  A    between atoms: C_1  and  C_2
REMARK    2  A    between atoms: C_3  and  C_4
REMARK    3  A    between atoms: C_3  and  N_7
REMARK    4  A    between atoms: C_4  and  C_5
REMARK                            x       y       z     vdW  Elec       q    Type
REMARK                         _______ _______ _______ _____ _____    ______ ____
ROOT
ATOM      1  C   UNL     1       1.227   0.235   0.064  0.00  0.00    +0.000 C 
ATOM      2  C   UNL     1       2.686  -0.039  -0.079  0.00  0.00    +0.000 C 
ATOM      3  C   UNL     1       3.288  -1.221  -0.331  0.00  0.00    +0.000 C 
ENDROOT
BRANCH   3   4
ATOM      4  N   UNL     1       4.663  -1.241  -0.232  0.00  0.00    +0.000 NA
ATOM      5  C   UNL     1       5.332  -1.959  -1.070  0.00  0.00    +0.000 C 
ATOM      6  N   UNL     1       6.682  -2.076  -0.994  0.00  0.00    +0.000 N 
ATOM      7  H   UNL     1       7.129  -1.383  -0.404  0.00  0.00    +0.000 HD
ATOM      8  H   UNL     1       7.197  -2.345  -1.821  0.00  0.00    +0.000 HD
ENDBRANCH   3   4
BRANCH   3   9
ATOM      9  C   UNL     1       2.531  -2.522  -0.475  0.00  0.00    +0.000 C 
BRANCH   9  10
ATOM     10  C   UNL     1       1.792  -2.576  -1.789  0.00  0.00    +0.000 C 
ATOM     11  O   UNL     1       2.147  -3.264  -2.745  0.00  0.00    +0.000 OA
ENDBRANCH   9  10
ENDBRANCH   3   9
TORSDOF 3
