REMARK  Name = ligand_9162515
REMARK  6 active torsions:
REMARK  status: ('A' for Active; 'I' for Inactive)
REMARK    1  A    between atoms: C_1  and  C_2
REMARK    2  A    between atoms: C_2  and  C_3
REMARK    3  A    between atoms: C_4  and  C_5
REMARK    4  A    between atoms: C_4  and  C_7
REMARK    5  A    between atoms: C_5  and  O_6
REMARK    6  A    between atoms: N_8  and  O_9
REMARK                            x       y       z     vdW  Elec       q    Type
REMARK                         _______ _______ _______ _____ _____    ______ ____
ROOT
ATOM      1  C   UNL     1       1.115  -0.057   0.184  0.00  0.00    +0.000 C 
ATOM      2  C   UNL     1       2.617  -0.064   0.046  0.00  0.00    +0.000 C 
ATOM      3  C   UNL     1       3.370  -0.284   1.336  0.00  0.00    +0.000 C 
ATOM      4  C   UNL     1       3.224   0.117  -1.153  0.00  0.00    +0.000 C 
ENDROOT
BRANCH   4   5
ATOM      5  C   UNL     1       4.716   0.129  -1.242  0.00  0.00    +0.000 C 
ATOM      6  N   UNL     1       5.354   0.298  -2.359  0.00  0.00    +0.000 NA
BRANCH   6   7
ATOM      7  O   UNL     1       6.732   0.256  -2.101  0.00  0.00    +0.000 OA
ATOM      8  H   UNL     1       7.119   0.402  -2.984  0.00  0.00    +0.000 HD
ENDBRANCH   6   7
ENDBRANCH   4   5
BRANCH   4   9
ATOM      9  C   UNL     1       2.517   0.345  -2.468  0.00  0.00    +0.000 C 
BRANCH   9  10
ATOM     10  O   UNL     1       2.865  -0.665  -3.408  0.00  0.00    +0.000 OA
ATOM     11  H   UNL     1       3.829  -0.566  -3.551  0.00  0.00    +0.000 HD
ENDBRANCH   9  10
ENDBRANCH   4   9
TORSDOF 4
