REMARK  Name = ligand_9162081
REMARK  7 active torsions:
REMARK  status: ('A' for Active; 'I' for Inactive)
REMARK    1  A    between atoms: C_1  and  C_2
REMARK    2  A    between atoms: C_2  and  C_4
REMARK    3  A    between atoms: C_4  and  C_5
REMARK    4  A    between atoms: C_4  and  O_6
REMARK    5  A    between atoms: C_4  and  C_7
REMARK    6  A    between atoms: C_7  and  C_8
REMARK    7  A    between atoms: C_8  and  N_9
REMARK                            x       y       z     vdW  Elec       q    Type
REMARK                         _______ _______ _______ _____ _____    ______ ____
ROOT
ATOM      1  C   UNL     1       3.310  -0.408  -1.140  0.00  0.00    +0.000 C 
ATOM      2  C   UNL     1       2.894  -1.815  -1.606  0.00  0.00    +0.000 C 
ENDROOT
BRANCH   1   4
ATOM      3  C   UNL     1       2.862   1.470   0.601  0.00  0.00    +0.000 C 
ATOM      4  C   UNL     1       2.565   0.067   0.119  0.00  0.00    +0.000 C 
ATOM      5  C   UNL     1       1.666  -0.667   0.803  0.00  0.00    +0.000 C 
ENDBRANCH   1   4
BRANCH   1   6
ATOM      6  O   UNL     1       2.946   0.491  -2.195  0.00  0.00    +0.000 OA
ATOM      7  H   UNL     1       1.974   0.492  -2.236  0.00  0.00    +0.000 HD
ENDBRANCH   1   6
BRANCH   1   8
ATOM      8  C   UNL     1       4.847  -0.320  -0.948  0.00  0.00    +0.000 C 
BRANCH   8   9
ATOM      9  C   UNL     1       5.667  -0.740  -2.174  0.00  0.00    +0.000 C 
BRANCH   9  10
ATOM     10  N   UNL     1       7.099  -0.587  -1.913  0.00  0.00    +0.000 NA
ATOM     11  H   UNL     1       7.303   0.397  -1.733  0.00  0.00    +0.000 HD
ATOM     12  H   UNL     1       7.617  -0.830  -2.755  0.00  0.00    +0.000 HD
ENDBRANCH   9  10
ENDBRANCH   8   9
ENDBRANCH   1   8
TORSDOF 5
