REMARK  Name = ligand_9162956
REMARK  4 active torsions:
REMARK  status: ('A' for Active; 'I' for Inactive)
REMARK    1  A    between atoms: C_1  and  C_2
REMARK    2  A    between atoms: C_2  and  C_3
REMARK    3  A    between atoms: C_4  and  C_5
REMARK    4  A    between atoms: N_7  and  N_8
REMARK                            x       y       z     vdW  Elec       q    Type
REMARK                         _______ _______ _______ _____ _____    ______ ____
ROOT
ATOM      1  C   UNL     1       4.750   0.111   3.144  0.00  0.00    +0.000 C 
ATOM      2  O   UNL     1       3.908   0.146   4.035  0.00  0.00    +0.000 OA
ATOM      3  N   UNL     1       6.122   0.117   3.329  0.00  0.00    +0.000 N 
ATOM      4  H   UNL     1       6.759   0.086   2.543  0.00  0.00    +0.000 HD
ENDROOT
BRANCH   1   6
ATOM      5  C   UNL     1       3.062   0.043   1.368  0.00  0.00    +0.000 C 
ATOM      6  C   UNL     1       4.363   0.057   1.704  0.00  0.00    +0.000 C 
BRANCH   5   8
ATOM      7  C   UNL     1       1.663   1.189  -0.349  0.00  0.00    +0.000 C 
ATOM      8  C   UNL     1       2.537  -0.015  -0.035  0.00  0.00    +0.000 C 
ENDBRANCH   5   8
ENDBRANCH   1   6
BRANCH   3   9
ATOM      9  N   UNL     1       6.623   0.167   4.598  0.00  0.00    +0.000 NA
ATOM     10  C   UNL     1       7.907   0.172   4.702  0.00  0.00    +0.000 C 
ENDBRANCH   3   9
TORSDOF 3
