REMARK  Name = ligand_9162532
REMARK  6 active torsions:
REMARK  status: ('A' for Active; 'I' for Inactive)
REMARK    1  A    between atoms: C_1  and  C_2
REMARK    2  A    between atoms: C_2  and  C_3
REMARK    3  A    between atoms: C_2  and  C_4
REMARK    4  A    between atoms: C_2  and  C_7
REMARK    5  A    between atoms: C_4  and  C_5
REMARK    6  A    between atoms: C_5  and  O_6
REMARK                            x       y       z     vdW  Elec       q    Type
REMARK                         _______ _______ _______ _____ _____    ______ ____
ROOT
ATOM      1  C   UNL     1       0.889   0.110   0.114  0.00  0.00    +0.000 C 
ATOM      2  C   UNL     1       2.427   0.072   0.054  0.00  0.00    +0.000 C 
ATOM      3  C   UNL     1       2.956   0.120   1.500  0.00  0.00    +0.000 C 
ENDROOT
BRANCH   2   4
ATOM      4  C   UNL     1       2.946   1.302  -0.705  0.00  0.00    +0.000 C 
ATOM      5  N   UNL     1       4.301   1.405  -0.841  0.00  0.00    +0.000 N 
ATOM      6  O   UNL     1       2.223   2.159  -1.197  0.00  0.00    +0.000 OA
ATOM      7  H   UNL     1       4.961   0.788  -0.393  0.00  0.00    +0.000 HD
ATOM      8  H   UNL     1       4.654   2.231  -1.308  0.00  0.00    +0.000 HD
ENDBRANCH   2   4
BRANCH   2   9
ATOM      9  C   UNL     1       2.917  -1.227  -0.629  0.00  0.00    +0.000 C 
BRANCH   9  10
ATOM     10  C   UNL     1       2.470  -1.392  -2.082  0.00  0.00    +0.000 C 
BRANCH  10  11
ATOM     11  O   UNL     1       3.029  -2.589  -2.610  0.00  0.00    +0.000 OA
ATOM     12  H   UNL     1       3.990  -2.459  -2.678  0.00  0.00    +0.000 HD
ENDBRANCH  10  11
ENDBRANCH   9  10
ENDBRANCH   2   9
TORSDOF 4
