REMARK  Name = ligand_9163412
REMARK  8 active torsions:
REMARK  status: ('A' for Active; 'I' for Inactive)
REMARK    1  A    between atoms: C_1  and  C_2
REMARK    2  A    between atoms: C_2  and  C_3
REMARK    3  A    between atoms: C_3  and  C_4
REMARK    4  A    between atoms: C_3  and  C_6
REMARK    5  A    between atoms: C_4  and  N_5
REMARK    6  A    between atoms: C_6  and  C_7
REMARK    7  A    between atoms: C_6  and  C_8
REMARK    8  A    between atoms: C_8  and  O_9
REMARK                            x       y       z     vdW  Elec       q    Type
REMARK                         _______ _______ _______ _____ _____    ______ ____
ROOT
ATOM      1  C   UNL     1       2.945  -0.016   1.389  0.00  0.00    +0.000 C 
ENDROOT
BRANCH   1   3
ATOM      2  C   UNL     1       0.866   0.106  -0.181  0.00  0.00    +0.000 C 
ATOM      3  C   UNL     1       2.383   0.065  -0.056  0.00  0.00    +0.000 C 
ENDBRANCH   1   3
BRANCH   1   4
ATOM      4  C   UNL     1       4.510   0.058   1.398  0.00  0.00    +0.000 C 
ATOM      5  C   UNL     1       5.166  -1.113   0.648  0.00  0.00    +0.000 C 
BRANCH   4   6
ATOM      6  C   UNL     1       5.040   1.402   0.865  0.00  0.00    +0.000 C 
BRANCH   6   7
ATOM      7  O   UNL     1       6.463   1.453   0.926  0.00  0.00    +0.000 OA
ATOM      8  H   UNL     1       6.724   1.315   1.852  0.00  0.00    +0.000 HD
ENDBRANCH   6   7
ENDBRANCH   4   6
ENDBRANCH   1   4
BRANCH   1   9
ATOM      9  C   UNL     1       2.413  -1.273   2.126  0.00  0.00    +0.000 C 
BRANCH   9  10
ATOM     10  N   UNL     1       2.867  -1.359   3.515  0.00  0.00    +0.000 NA
ATOM     11  H   UNL     1       3.879  -1.441   3.552  0.00  0.00    +0.000 HD
ATOM     12  H   UNL     1       2.512  -2.218   3.928  0.00  0.00    +0.000 HD
ENDBRANCH   9  10
ENDBRANCH   1   9
TORSDOF 6
