REMARK  Name = ligand_9163402
REMARK  6 active torsions:
REMARK  status: ('A' for Active; 'I' for Inactive)
REMARK    1  A    between atoms: C_1  and  C_2
REMARK    2  A    between atoms: C_2  and  C_3
REMARK    3  A    between atoms: C_3  and  C_4
REMARK    4  A    between atoms: C_3  and  C_6
REMARK    5  A    between atoms: C_6  and  C_7
REMARK    6  A    between atoms: C_6  and  C_8
REMARK                            x       y       z     vdW  Elec       q    Type
REMARK                         _______ _______ _______ _____ _____    ______ ____
ROOT
ATOM      1  C   UNL     1       2.937  -1.152  -0.811  0.00  0.00    +0.000 C 
ENDROOT
BRANCH   1   3
ATOM      2  C   UNL     1       0.807  -0.001   0.044  0.00  0.00    +0.000 C 
ATOM      3  C   UNL     1       2.331   0.022  -0.011  0.00  0.00    +0.000 C 
ENDBRANCH   1   3
BRANCH   1   4
ATOM      4  C   UNL     1       2.486  -1.118  -2.217  0.00  0.00    +0.000 C 
ATOM      5  N   UNL     1       2.149  -1.082  -3.328  0.00  0.00    +0.000 NA
ENDBRANCH   1   4
BRANCH   1   6
ATOM      6  C   UNL     1       4.486  -1.183  -0.772  0.00  0.00    +0.000 C 
ATOM      7  C   UNL     1       5.160   0.084  -1.308  0.00  0.00    +0.000 C 
BRANCH   6   8
ATOM      8  C   UNL     1       4.994  -1.461   0.628  0.00  0.00    +0.000 C 
ATOM      9  O   UNL     1       4.346  -2.060   1.480  0.00  0.00    +0.000 OA
ENDBRANCH   6   8
ENDBRANCH   1   6
TORSDOF 4
