REMARK  Name = ligand_9163272
REMARK  6 active torsions:
REMARK  status: ('A' for Active; 'I' for Inactive)
REMARK    1  A    between atoms: C_1  and  C_2
REMARK    2  A    between atoms: C_2  and  C_4
REMARK    3  A    between atoms: C_4  and  N_5
REMARK    4  A    between atoms: C_4  and  C_6
REMARK    5  A    between atoms: C_6  and  C_8
REMARK    6  A    between atoms: C_8  and  O_9
REMARK                            x       y       z     vdW  Elec       q    Type
REMARK                         _______ _______ _______ _____ _____    ______ ____
ROOT
ATOM      1  C   UNL     1       3.359  -0.570   0.464  0.00  0.00    +0.000 C 
ENDROOT
BRANCH   1   3
ATOM      2  C   UNL     1       0.851  -0.059   0.166  0.00  0.00    +0.000 C 
ATOM      3  C   UNL     1       2.273   0.212  -0.267  0.00  0.00    +0.000 C 
ATOM      4  C   UNL     1       2.497   1.143  -1.216  0.00  0.00    +0.000 C 
ENDBRANCH   1   3
BRANCH   1   5
ATOM      5  N   UNL     1       3.179  -2.008   0.270  0.00  0.00    +0.000 NA
ATOM      6  H   UNL     1       3.105  -2.192  -0.728  0.00  0.00    +0.000 HD
ATOM      7  H   UNL     1       2.293  -2.295   0.678  0.00  0.00    +0.000 HD
ENDBRANCH   1   5
BRANCH   1   8
ATOM      8  C   UNL     1       4.764  -0.246   0.023  0.00  0.00    +0.000 C 
ATOM      9  C   UNL     1       5.652   0.590   0.592  0.00  0.00    +0.000 C 
BRANCH   8  10
ATOM     10  C   UNL     1       5.469   1.438   1.804  0.00  0.00    +0.000 C 
BRANCH  10  11
ATOM     11  O   UNL     1       6.510   1.134   2.720  0.00  0.00    +0.000 OA
ATOM     12  H   UNL     1       6.537   0.165   2.803  0.00  0.00    +0.000 HD
ENDBRANCH  10  11
ENDBRANCH   8  10
ENDBRANCH   1   8
TORSDOF 5
