REMARK  Name = ligand_9164003
REMARK  5 active torsions:
REMARK  status: ('A' for Active; 'I' for Inactive)
REMARK    1  A    between atoms: C_1  and  C_2
REMARK    2  A    between atoms: C_2  and  C_3
REMARK    3  A    between atoms: C_3  and  C_4
REMARK    4  A    between atoms: C_4  and  N_5
REMARK    5  A    between atoms: C_4  and  C_8
REMARK                            x       y       z     vdW  Elec       q    Type
REMARK                         _______ _______ _______ _____ _____    ______ ____
ROOT
ATOM      1  C   UNL     1       4.634   1.077  -1.018  0.00  0.00    +0.000 C 
ENDROOT
BRANCH   1   2
ATOM      2  N   UNL     1       5.162   2.053  -1.970  0.00  0.00    +0.000 N 
ATOM      3  C   UNL     1       5.464   1.723  -3.263  0.00  0.00    +0.000 C 
ATOM      4  O   UNL     1       5.331   0.614  -3.752  0.00  0.00    +0.000 OA
ATOM      5  H   UNL     1       5.273   3.017  -1.676  0.00  0.00    +0.000 HD
ENDBRANCH   1   2
BRANCH   1   6
ATOM      6  C   UNL     1       5.107   1.481   0.369  0.00  0.00    +0.000 C 
ATOM      7  N   UNL     1       5.500   1.816   1.519  0.00  0.00    +0.000 NA
ENDBRANCH   1   6
BRANCH   1   8
ATOM      8  C   UNL     1       3.094   1.069  -1.060  0.00  0.00    +0.000 C 
BRANCH   8  10
ATOM      9  C   UNL     1       0.944   0.106  -0.139  0.00  0.00    +0.000 C 
ATOM     10  C   UNL     1       2.464   0.070  -0.081  0.00  0.00    +0.000 C 
ENDBRANCH   8  10
ENDBRANCH   1   8
TORSDOF 4
