REMARK  Name = ligand_9164014
REMARK  4 active torsions:
REMARK  status: ('A' for Active; 'I' for Inactive)
REMARK    1  A    between atoms: C_2  and  C_3
REMARK    2  A    between atoms: C_3  and  C_4
REMARK    3  A    between atoms: C_3  and  C_6
REMARK    4  A    between atoms: C_6  and  C_8
REMARK                            x       y       z     vdW  Elec       q    Type
REMARK                         _______ _______ _______ _____ _____    ______ ____
ROOT
ATOM      1  C   UNL     1       3.044   1.096  -0.817  0.00  0.00    +0.000 C 
ENDROOT
BRANCH   1   3
ATOM      2  C   UNL     1       1.359  -0.783  -0.633  0.00  0.00    +0.000 C 
ATOM      3  C   UNL     1       2.207   0.084  -0.063  0.00  0.00    +0.000 C 
ENDBRANCH   1   3
BRANCH   1   4
ATOM      4  C   UNL     1       2.676   2.491  -0.339  0.00  0.00    +0.000 C 
ATOM      5  N   UNL     1       2.372   3.649   0.058  0.00  0.00    +0.000 NA
ENDBRANCH   1   4
BRANCH   1   6
ATOM      6  C   UNL     1       4.527   0.869  -0.593  0.00  0.00    +0.000 C 
ATOM      7  O   UNL     1       5.035   0.010   0.116  0.00  0.00    +0.000 OA
BRANCH   6   8
ATOM      8  C   UNL     1       5.465   1.763  -1.368  0.00  0.00    +0.000 C 
ATOM      9  O   UNL     1       5.034   2.600  -2.142  0.00  0.00    +0.000 OA
ENDBRANCH   6   8
ENDBRANCH   1   6
TORSDOF 4
