REMARK  Name = ligand_9164428
REMARK  6 active torsions:
REMARK  status: ('A' for Active; 'I' for Inactive)
REMARK    1  A    between atoms: C_1  and  C_2
REMARK    2  A    between atoms: C_2  and  C_3
REMARK    3  A    between atoms: C_2  and  C_4
REMARK    4  A    between atoms: C_2  and  N_6
REMARK    5  A    between atoms: C_4  and  N_5
REMARK    6  A    between atoms: N_8  and  O_9
REMARK                            x       y       z     vdW  Elec       q    Type
REMARK                         _______ _______ _______ _____ _____    ______ ____
ROOT
ATOM      1  C   UNL     1       0.960  -0.061  -0.008  0.00  0.00    +0.000 C 
ATOM      2  C   UNL     1       2.500  -0.060  -0.054  0.00  0.00    +0.000 C 
ATOM      3  C   UNL     1       2.984  -1.499  -0.297  0.00  0.00    +0.000 C 
ENDROOT
BRANCH   2   4
ATOM      4  N   UNL     1       2.935   0.384   1.293  0.00  0.00    +0.000 NA
ATOM      5  C   UNL     1       4.195   0.491   1.531  0.00  0.00    +0.000 C 
ATOM      6  N   UNL     1       4.730   0.822   2.751  0.00  0.00    +0.000 N 
ATOM      7  H   UNL     1       5.651   1.254   2.766  0.00  0.00    +0.000 HD
BRANCH   6   8
ATOM      8  O   UNL     1       3.809   1.412   3.624  0.00  0.00    +0.000 OA
ATOM      9  H   UNL     1       2.952   1.033   3.327  0.00  0.00    +0.000 HD
ENDBRANCH   6   8
ENDBRANCH   2   4
BRANCH   2  10
ATOM     10  C   UNL     1       2.988   0.919  -1.166  0.00  0.00    +0.000 C 
BRANCH  10  11
ATOM     11  N   UNL     1       2.522   0.592  -2.518  0.00  0.00    +0.000 NA
ATOM     12  H   UNL     1       2.861  -0.327  -2.794  0.00  0.00    +0.000 HD
ATOM     13  H   UNL     1       2.919   1.257  -3.183  0.00  0.00    +0.000 HD
ENDBRANCH  10  11
ENDBRANCH   2  10
TORSDOF 4
