REMARK  Name = ligand_9165761
REMARK  7 active torsions:
REMARK  status: ('A' for Active; 'I' for Inactive)
REMARK    1  A    between atoms: C_1  and  C_2
REMARK    2  A    between atoms: C_2  and  C_3
REMARK    3  A    between atoms: C_3  and  C_4
REMARK    4  A    between atoms: C_3  and  O_5
REMARK    5  A    between atoms: C_3  and  C_6
REMARK    6  A    between atoms: C_6  and  C_7
REMARK    7  A    between atoms: N_8  and  O_9
REMARK                            x       y       z     vdW  Elec       q    Type
REMARK                         _______ _______ _______ _____ _____    ______ ____
ROOT
ATOM      1  C   UNL     1       3.042  -1.343  -0.849  0.00  0.00    +0.000 C 
ATOM      2  C   UNL     1       2.538  -2.626  -0.179  0.00  0.00    +0.000 C 
ENDROOT
BRANCH   1   4
ATOM      3  C   UNL     1       1.011   0.074  -0.054  0.00  0.00    +0.000 C 
ATOM      4  C   UNL     1       2.528  -0.078  -0.119  0.00  0.00    +0.000 C 
ENDBRANCH   1   4
BRANCH   1   5
ATOM      5  O   UNL     1       2.577  -1.312  -2.202  0.00  0.00    +0.000 OA
ATOM      6  H   UNL     1       1.611  -1.432  -2.197  0.00  0.00    +0.000 HD
ENDBRANCH   1   5
BRANCH   1   7
ATOM      7  C   UNL     1       4.580  -1.287  -0.884  0.00  0.00    +0.000 C 
BRANCH   7   8
ATOM      8  C   UNL     1       5.187  -2.471  -1.586  0.00  0.00    +0.000 C 
ATOM      9  N   UNL     1       6.007  -3.256  -0.963  0.00  0.00    +0.000 NA
BRANCH   9  10
ATOM     10  O   UNL     1       6.434  -4.256  -1.844  0.00  0.00    +0.000 OA
ATOM     11  H   UNL     1       7.076  -4.752  -1.302  0.00  0.00    +0.000 HD
ENDBRANCH   9  10
ENDBRANCH   7   8
ENDBRANCH   1   7
TORSDOF 5
