REMARK  Name = ligand_9165650
REMARK  6 active torsions:
REMARK  status: ('A' for Active; 'I' for Inactive)
REMARK    1  A    between atoms: C_1  and  C_2
REMARK    2  A    between atoms: C_2  and  C_3
REMARK    3  A    between atoms: C_3  and  C_4
REMARK    4  A    between atoms: C_3  and  O_5
REMARK    5  A    between atoms: C_3  and  C_7
REMARK    6  A    between atoms: O_5  and  C_6
REMARK                            x       y       z     vdW  Elec       q    Type
REMARK                         _______ _______ _______ _____ _____    ______ ____
ROOT
ATOM      1  C   UNL     1       2.938  -1.381  -0.179  0.00  0.00    +0.000 C 
ATOM      2  C   UNL     1       2.468  -2.349   0.925  0.00  0.00    +0.000 C 
ENDROOT
BRANCH   1   3
ATOM      3  C   UNL     1       4.506  -1.422  -0.179  0.00  0.00    +0.000 C 
ATOM      4  N   UNL     1       5.262  -0.305   0.032  0.00  0.00    +0.000 N 
ATOM      5  N   UNL     1       5.159  -2.515  -0.424  0.00  0.00    +0.000 NA
ATOM      6  H   UNL     1       4.922   0.560  -0.364  0.00  0.00    +0.000 HD
ATOM      7  H   UNL     1       6.234  -0.484  -0.207  0.00  0.00    +0.000 HD
ATOM      8  H   UNL     1       4.489  -3.276  -0.604  0.00  0.00    +0.000 HD
ENDBRANCH   1   3
BRANCH   1  10
ATOM      9  C   UNL     1       0.878   0.181   0.124  0.00  0.00    +0.000 C 
ATOM     10  C   UNL     1       2.397   0.042   0.117  0.00  0.00    +0.000 C 
ENDBRANCH   1  10
BRANCH   1  11
ATOM     11  O   UNL     1       2.399  -1.899  -1.402  0.00  0.00    +0.000 OA
ATOM     12  C   UNL     1       2.926  -1.334  -2.596  0.00  0.00    +0.000 C 
ENDBRANCH   1  11
TORSDOF 3
