REMARK  Name = ligand_9165648
REMARK  6 active torsions:
REMARK  status: ('A' for Active; 'I' for Inactive)
REMARK    1  A    between atoms: C_1  and  C_2
REMARK    2  A    between atoms: C_2  and  C_3
REMARK    3  A    between atoms: C_3  and  C_4
REMARK    4  A    between atoms: C_3  and  O_5
REMARK    5  A    between atoms: C_3  and  C_6
REMARK    6  A    between atoms: C_6  and  C_7
REMARK                            x       y       z     vdW  Elec       q    Type
REMARK                         _______ _______ _______ _____ _____    ______ ____
ROOT
ATOM      1  C   UNL     1       4.566  -1.056  -1.256  0.00  0.00    +0.000 C 
ENDROOT
BRANCH   1   2
ATOM      2  C   UNL     1       5.188  -2.015  -2.266  0.00  0.00    +0.000 C 
ATOM      3  N   UNL     1       4.527  -2.350  -3.404  0.00  0.00    +0.000 N 
ATOM      4  N   UNL     1       6.384  -2.475  -2.101  0.00  0.00    +0.000 NA
ATOM      5  H   UNL     1       3.849  -1.665  -3.731  0.00  0.00    +0.000 HD
ATOM      6  H   UNL     1       5.134  -2.733  -4.118  0.00  0.00    +0.000 HD
ATOM      7  H   UNL     1       6.789  -2.124  -1.229  0.00  0.00    +0.000 HD
ENDBRANCH   1   2
BRANCH   1   8
ATOM      8  C   UNL     1       3.024  -1.076  -1.155  0.00  0.00    +0.000 C 
ATOM      9  C   UNL     1       2.496  -2.474  -0.807  0.00  0.00    +0.000 C 
BRANCH   8  11
ATOM     10  C   UNL     1       1.073   0.109   0.089  0.00  0.00    +0.000 C 
ATOM     11  C   UNL     1       2.583  -0.046  -0.081  0.00  0.00    +0.000 C 
ENDBRANCH   8  11
BRANCH   8  12
ATOM     12  O   UNL     1       2.494  -0.659  -2.422  0.00  0.00    +0.000 OA
ATOM     13  H   UNL     1       1.523  -0.710  -2.372  0.00  0.00    +0.000 HD
ENDBRANCH   8  12
ENDBRANCH   1   8
TORSDOF 4
