REMARK  Name = ligand_9166669
REMARK  6 active torsions:
REMARK  status: ('A' for Active; 'I' for Inactive)
REMARK    1  A    between atoms: C_1  and  C_2
REMARK    2  A    between atoms: C_2  and  C_3
REMARK    3  A    between atoms: C_3  and  C_4
REMARK    4  A    between atoms: C_4  and  O_5
REMARK    5  A    between atoms: O_5  and  N_6
REMARK    6  A    between atoms: N_8  and  O_9
REMARK                            x       y       z     vdW  Elec       q    Type
REMARK                         _______ _______ _______ _____ _____    ______ ____
ROOT
ATOM      1  C   UNL     1       0.932   0.055   0.124  0.00  0.00    +0.000 C 
ATOM      2  C   UNL     1       2.439  -0.019   0.057  0.00  0.00    +0.000 C 
ATOM      3  N   UNL     1       3.080   0.782   0.861  0.00  0.00    +0.000 NA
ENDROOT
BRANCH   3   4
ATOM      4  O   UNL     1       4.466   0.640   0.744  0.00  0.00    +0.000 OA
ATOM      5  H   UNL     1       4.797   1.273   1.406  0.00  0.00    +0.000 HD
ENDBRANCH   3   4
BRANCH   2   6
ATOM      6  C   UNL     1       3.155  -0.985  -0.883  0.00  0.00    +0.000 C 
BRANCH   6   7
ATOM      7  C   UNL     1       2.286  -1.836  -1.790  0.00  0.00    +0.000 C 
BRANCH   7   8
ATOM      8  O   UNL     1       1.535  -2.758  -0.998  0.00  0.00    +0.000 OA
BRANCH   8   9
ATOM      9  N   UNL     1       0.667  -3.463  -1.844  0.00  0.00    +0.000 NA
ATOM     10  C   UNL     1      -0.106  -4.199  -1.121  0.00  0.00    +0.000 C 
ENDBRANCH   8   9
ENDBRANCH   7   8
ENDBRANCH   6   7
ENDBRANCH   2   6
TORSDOF 5
