REMARK  Name = ligand_9166686
REMARK  7 active torsions:
REMARK  status: ('A' for Active; 'I' for Inactive)
REMARK    1  A    between atoms: C_1  and  C_2
REMARK    2  A    between atoms: C_2  and  C_3
REMARK    3  A    between atoms: C_3  and  C_4
REMARK    4  A    between atoms: C_3  and  O_5
REMARK    5  A    between atoms: O_5  and  N_6
REMARK    6  A    between atoms: C_7  and  O_8
REMARK    7  A    between atoms: O_8  and  C_9
REMARK                            x       y       z     vdW  Elec       q    Type
REMARK                         _______ _______ _______ _____ _____    ______ ____
ROOT
ATOM      1  O   UNL     1       4.502  -1.260  -0.447  0.00  0.00    +0.000 OA
ENDROOT
BRANCH   1   2
ATOM      2  C   UNL     1       3.069  -1.307  -0.425  0.00  0.00    +0.000 C 
ATOM      3  C   UNL     1       2.572  -1.744  -1.799  0.00  0.00    +0.000 C 
BRANCH   2   5
ATOM      4  C   UNL     1       2.998   0.537   1.315  0.00  0.00    +0.000 C 
ATOM      5  C   UNL     1       2.536   0.082  -0.064  0.00  0.00    +0.000 C 
ENDBRANCH   2   5
ENDBRANCH   1   2
BRANCH   1   6
ATOM      6  N   UNL     1       4.989  -2.542  -0.156  0.00  0.00    +0.000 NA
ATOM      7  C   UNL     1       6.272  -2.515  -0.120  0.00  0.00    +0.000 C 
BRANCH   7   8
ATOM      8  O   UNL     1       7.028  -3.607   0.142  0.00  0.00    +0.000 OA
ATOM      9  C   UNL     1       6.292  -4.811   0.381  0.00  0.00    +0.000 C 
ENDBRANCH   7   8
ENDBRANCH   1   6
TORSDOF 4
