REMARK  Name = ligand_9166786
REMARK  4 active torsions:
REMARK  status: ('A' for Active; 'I' for Inactive)
REMARK    1  A    between atoms: C_1  and  C_2
REMARK    2  A    between atoms: C_2  and  N_6
REMARK    3  A    between atoms: C_3  and  C_4
REMARK    4  A    between atoms: N_6  and  O_7
REMARK                            x       y       z     vdW  Elec       q    Type
REMARK                         _______ _______ _______ _____ _____    ______ ____
ROOT
ATOM      1  N   UNL     1       3.624  -0.767   0.492  0.00  0.00    +0.000 N 
ATOM      2  C   UNL     1       4.052  -1.925   1.086  0.00  0.00    +0.000 C 
ATOM      3  N   UNL     1       4.336  -2.970   0.386  0.00  0.00    +0.000 NA
ATOM      4  H   UNL     1       4.114  -2.743  -0.598  0.00  0.00    +0.000 HD
ENDROOT
BRANCH   1   6
ATOM      5  C   UNL     1       4.225   2.911  -1.237  0.00  0.00    +0.000 C 
ATOM      6  C   UNL     1       3.740   2.453   0.097  0.00  0.00    +0.000 C 
ATOM      7  C   UNL     1       2.838   1.459   0.165  0.00  0.00    +0.000 C 
BRANCH   7   8
ATOM      8  C   UNL     1       3.218   0.396   1.144  0.00  0.00    +0.000 C 
ATOM      9  O   UNL     1       3.288   0.607   2.343  0.00  0.00    +0.000 OA
ENDBRANCH   7   8
ENDBRANCH   1   6
BRANCH   1  10
ATOM     10  O   UNL     1       3.562  -0.836  -0.919  0.00  0.00    +0.000 OA
ATOM     11  H   UNL     1       4.462  -0.531  -1.159  0.00  0.00    +0.000 HD
ENDBRANCH   1  10
TORSDOF 3
