REMARK  Name = ligand_9167896
REMARK  7 active torsions:
REMARK  status: ('A' for Active; 'I' for Inactive)
REMARK    1  A    between atoms: C_1  and  C_2
REMARK    2  A    between atoms: C_2  and  C_3
REMARK    3  A    between atoms: C_2  and  C_7
REMARK    4  A    between atoms: C_3  and  N_4
REMARK    5  A    between atoms: N_4  and  C_5
REMARK    6  A    between atoms: N_4  and  C_6
REMARK    7  A    between atoms: C_7  and  C_8
REMARK                            x       y       z     vdW  Elec       q    Type
REMARK                         _______ _______ _______ _____ _____    ______ ____
ROOT
ATOM      1  C   UNL     1       1.026  -0.082  -0.257  0.00  0.00    +0.000 C 
ATOM      2  C   UNL     1       2.537  -0.039  -0.055  0.00  0.00    +0.000 C 
ENDROOT
BRANCH   2   3
ATOM      3  C   UNL     1       3.152  -1.425  -0.199  0.00  0.00    +0.000 C 
ATOM      4  C   UNL     1       2.668  -2.545   0.686  0.00  0.00    +0.000 C 
ATOM      5  O   UNL     1       4.038  -1.634  -1.030  0.00  0.00    +0.000 OA
ENDBRANCH   2   3
BRANCH   2   6
ATOM      6  C   UNL     1       2.968   0.567   1.296  0.00  0.00    +0.000 C 
BRANCH   6   7
ATOM      7  N   UNL     1       2.551   1.962   1.537  0.00  0.00    +0.000 NA
ATOM      8  C   UNL     1       2.949   2.360   2.893  0.00  0.00    +0.000 C 
ATOM      9  C   UNL     1       3.139   2.888   0.565  0.00  0.00    +0.000 C 
ENDBRANCH   6   7
ENDBRANCH   2   6
TORSDOF 3
