REMARK  Name = ligand_9167089
REMARK  3 active torsions:
REMARK  status: ('A' for Active; 'I' for Inactive)
REMARK    1  A    between atoms: C_1  and  C_2
REMARK    2  A    between atoms: C_2  and  C_3
REMARK    3  A    between atoms: C_3  and  N_4
REMARK                            x       y       z     vdW  Elec       q    Type
REMARK                         _______ _______ _______ _____ _____    ______ ____
ROOT
ATOM      1  N   UNL     1       4.261  -0.025  -0.188  0.00  0.00    +0.000 N 
ATOM      2  O   UNL     1       4.659  -1.232  -0.799  0.00  0.00    +0.000 OA
ATOM      3  C   UNL     1       5.311  -1.970   0.182  0.00  0.00    +0.000 A 
ATOM      4  O   UNL     1       5.795  -3.074  -0.013  0.00  0.00    +0.000 OA
ATOM      5  N   UNL     1       5.273  -1.284   1.376  0.00  0.00    +0.000 NA
ATOM      6  C   UNL     1       4.636  -0.196   1.104  0.00  0.00    +0.000 A 
ENDROOT
BRANCH   1   7
ATOM      7  C   UNL     1       2.721   1.888  -0.208  0.00  0.00    +0.000 C 
BRANCH   7   9
ATOM      8  C   UNL     1       1.829  -0.473  -0.112  0.00  0.00    +0.000 C 
ATOM      9  C   UNL     1       2.949   0.435  -0.627  0.00  0.00    +0.000 C 
ENDBRANCH   7   9
ENDBRANCH   1   7
TORSDOF 2
