REMARK  Name = ligand_9167566
REMARK  2 active torsions:
REMARK  status: ('A' for Active; 'I' for Inactive)
REMARK    1  A    between atoms: C_2  and  C_3
REMARK    2  A    between atoms: C_2  and  C_5
REMARK                            x       y       z     vdW  Elec       q    Type
REMARK                         _______ _______ _______ _____ _____    ______ ____
ROOT
ATOM      1  C   UNL     1       3.081  -0.810   0.902  0.00  0.00    +0.000 C 
ATOM      2  N   UNL     1       2.816  -2.263   0.773  0.00  0.00    +0.000 NA
ATOM      3  C   UNL     1       2.798  -2.477   2.235  0.00  0.00    +0.000 C 
ATOM      4  C   UNL     1       2.534  -0.958   2.341  0.00  0.00    +0.000 C 
ATOM      5  O   UNL     1       2.141  -0.212   3.211  0.00  0.00    +0.000 OA
ATOM      6  H   UNL     1       3.520  -2.791   0.260  0.00  0.00    +0.000 HD
ENDROOT
BRANCH   1   8
ATOM      7  C   UNL     1       1.044  -0.275  -0.415  0.00  0.00    +0.000 C 
ATOM      8  C   UNL     1       2.274   0.062   0.010  0.00  0.00    +0.000 C 
BRANCH   8   9
ATOM      9  C   UNL     1       2.857   1.297  -0.408  0.00  0.00    +0.000 C 
ATOM     10  N   UNL     1       3.355   2.285  -0.756  0.00  0.00    +0.000 NA
ENDBRANCH   8   9
ENDBRANCH   1   8
TORSDOF 2
