REMARK  Name = ligand_9167428
REMARK  4 active torsions:
REMARK  status: ('A' for Active; 'I' for Inactive)
REMARK    1  A    between atoms: C_1  and  C_2
REMARK    2  A    between atoms: C_2  and  C_3
REMARK    3  A    between atoms: C_2  and  C_5
REMARK    4  A    between atoms: C_3  and  N_4
REMARK                            x       y       z     vdW  Elec       q    Type
REMARK                         _______ _______ _______ _____ _____    ______ ____
ROOT
ATOM      1  C   UNL     1       0.902  -0.099   0.102  0.00  0.00    +0.000 C 
ATOM      2  C   UNL     1       2.429   0.020   0.117  0.00  0.00    +0.000 C 
ENDROOT
BRANCH   2   3
ATOM      3  C   UNL     1       2.859   0.819   1.302  0.00  0.00    +0.000 A 
ATOM      4  C   UNL     1       2.671   2.119   1.717  0.00  0.00    +0.000 A 
ATOM      5  N   UNL     1       3.288   2.322   2.924  0.00  0.00    +0.000 NA
ATOM      6  C   UNL     1       3.815   1.150   3.198  0.00  0.00    +0.000 A 
ATOM      7  O   UNL     1       3.604   0.185   2.260  0.00  0.00    +0.000 OA
ENDBRANCH   2   3
BRANCH   2   8
ATOM      8  C   UNL     1       2.981   0.650  -1.180  0.00  0.00    +0.000 C 
BRANCH   8   9
ATOM      9  N   UNL     1       2.625  -0.101  -2.386  0.00  0.00    +0.000 NA
ATOM     10  H   UNL     1       3.050  -1.027  -2.354  0.00  0.00    +0.000 HD
ATOM     11  H   UNL     1       3.022   0.364  -3.202  0.00  0.00    +0.000 HD
ENDBRANCH   8   9
ENDBRANCH   2   8
TORSDOF 3
