REMARK  Name = ligand_9167608
REMARK  5 active torsions:
REMARK  status: ('A' for Active; 'I' for Inactive)
REMARK    1  A    between atoms: C_1  and  C_2
REMARK    2  A    between atoms: C_2  and  C_3
REMARK    3  A    between atoms: C_2  and  N_4
REMARK    4  A    between atoms: C_2  and  C_5
REMARK    5  A    between atoms: C_5  and  N_6
REMARK                            x       y       z     vdW  Elec       q    Type
REMARK                         _______ _______ _______ _____ _____    ______ ____
ROOT
ATOM      1  C   UNL     1       3.056   1.354  -0.318  0.00  0.00    +0.000 C 
ATOM      2  C   UNL     1       4.548   1.738  -0.099  0.00  0.00    +0.000 C 
ATOM      3  O   UNL     1       4.174   3.094   0.273  0.00  0.00    +0.000 OA
ATOM      4  C   UNL     1       2.799   2.656   0.487  0.00  0.00    +0.000 C 
ENDROOT
BRANCH   1   6
ATOM      5  C   UNL     1       0.982  -0.034   0.049  0.00  0.00    +0.000 C 
ATOM      6  C   UNL     1       2.520  -0.019   0.136  0.00  0.00    +0.000 C 
ATOM      7  C   UNL     1       2.934  -0.367   1.571  0.00  0.00    +0.000 C 
BRANCH   6   8
ATOM      8  N   UNL     1       3.034  -1.069  -0.774  0.00  0.00    +0.000 NA
ATOM      9  H   UNL     1       2.603  -1.964  -0.535  0.00  0.00    +0.000 HD
ATOM     10  H   UNL     1       4.034  -1.197  -0.621  0.00  0.00    +0.000 HD
ENDBRANCH   6   8
ENDBRANCH   1   6
BRANCH   1  11
ATOM     11  N   UNL     1       2.721   1.639  -1.745  0.00  0.00    +0.000 NA
ATOM     12  H   UNL     1       2.730   0.775  -2.298  0.00  0.00    +0.000 HD
ATOM     13  H   UNL     1       3.356   2.288  -2.206  0.00  0.00    +0.000 HD
ENDBRANCH   1  11
TORSDOF 3
