REMARK  Name = ligand_9167188
REMARK  2 active torsions:
REMARK  status: ('A' for Active; 'I' for Inactive)
REMARK    1  A    between atoms: C_1  and  C_2
REMARK    2  A    between atoms: C_2  and  N_4
REMARK                            x       y       z     vdW  Elec       q    Type
REMARK                         _______ _______ _______ _____ _____    ______ ____
ROOT
ATOM      1  N   UNL     1       3.858   0.236  -1.044  0.00  0.00    +0.000 N 
ATOM      2  O   UNL     1       3.441   1.544  -1.390  0.00  0.00    +0.000 OA
ATOM      3  C   UNL     1       4.250   1.910  -2.510  0.00  0.00    +0.000 C 
ATOM      4  C   UNL     1       5.512   1.093  -2.412  0.00  0.00    +0.000 C 
ATOM      5  C   UNL     1       5.032  -0.115  -1.686  0.00  0.00    +0.000 C 
ATOM      6  O   UNL     1       5.661  -1.159  -1.586  0.00  0.00    +0.000 OA
ENDROOT
BRANCH   1   8
ATOM      7  C   UNL     1       1.323   1.115   0.497  0.00  0.00    +0.000 C 
ATOM      8  C   UNL     1       2.338   0.077   0.848  0.00  0.00    +0.000 C 
ATOM      9  C   UNL     1       3.396  -0.310   0.121  0.00  0.00    +0.000 C 
ENDBRANCH   1   8
TORSDOF 1
