REMARK  Name = ligand_9167594
REMARK  3 active torsions:
REMARK  status: ('A' for Active; 'I' for Inactive)
REMARK    1  A    between atoms: C_1  and  C_2
REMARK    2  A    between atoms: C_2  and  C_3
REMARK    3  A    between atoms: C_3  and  N_4
REMARK                            x       y       z     vdW  Elec       q    Type
REMARK                         _______ _______ _______ _____ _____    ______ ____
ROOT
ATOM      1  N   UNL     1       4.598  -1.277   0.535  0.00  0.00    +0.000 N 
ATOM      2  C   UNL     1       5.316  -2.303   1.053  0.00  0.00    +0.000 C 
ATOM      3  N   UNL     1       4.958  -3.530   1.216  0.00  0.00    +0.000 NA
ATOM      4  C   UNL     1       6.114  -4.164   1.852  0.00  0.00    +0.000 C 
ATOM      5  C   UNL     1       7.169  -3.088   1.950  0.00  0.00    +0.000 C 
ATOM      6  O   UNL     1       6.548  -1.912   1.454  0.00  0.00    +0.000 OA
ATOM      7  H   UNL     1       5.024  -0.376   0.710  0.00  0.00    +0.000 HD
ENDROOT
BRANCH   1   8
ATOM      8  C   UNL     1       3.149  -1.305   0.559  0.00  0.00    +0.000 C 
BRANCH   8  10
ATOM      9  C   UNL     1       1.077  -0.044  -0.127  0.00  0.00    +0.000 C 
ATOM     10  C   UNL     1       2.596  -0.078  -0.161  0.00  0.00    +0.000 C 
ENDBRANCH   8  10
ENDBRANCH   1   8
TORSDOF 2
