REMARK  Name = ligand_9168468
REMARK  6 active torsions:
REMARK  status: ('A' for Active; 'I' for Inactive)
REMARK    1  A    between atoms: C_1  and  C_2
REMARK    2  A    between atoms: C_2  and  C_3
REMARK    3  A    between atoms: C_2  and  N_4
REMARK    4  A    between atoms: N_4  and  C_5
REMARK    5  A    between atoms: C_5  and  C_6
REMARK    6  A    between atoms: C_6  and  O_7
REMARK                            x       y       z     vdW  Elec       q    Type
REMARK                         _______ _______ _______ _____ _____    ______ ____
ROOT
ATOM      1  N   UNL     1       2.998  -0.527  -1.348  0.00  0.00    +0.000 N 
ATOM      2  C   UNL     1       4.338  -0.542  -1.715  0.00  0.00    +0.000 C 
ATOM      3  O   UNL     1       5.265  -0.105  -1.048  0.00  0.00    +0.000 OA
ENDROOT
BRANCH   1   5
ATOM      4  C   UNL     1       1.220   0.529   0.101  0.00  0.00    +0.000 C 
ATOM      5  C   UNL     1       2.641  -0.023  -0.009  0.00  0.00    +0.000 C 
ATOM      6  C   UNL     1       2.882  -1.092   1.059  0.00  0.00    +0.000 C 
ENDBRANCH   1   5
BRANCH   1   7
ATOM      7  C   UNL     1       2.033  -1.253  -2.180  0.00  0.00    +0.000 C 
BRANCH   7   8
ATOM      8  C   UNL     1       1.388  -0.369  -3.256  0.00  0.00    +0.000 C 
BRANCH   8   9
ATOM      9  O   UNL     1       2.372   0.220  -4.098  0.00  0.00    +0.000 OA
ATOM     10  H   UNL     1       2.783   0.939  -3.585  0.00  0.00    +0.000 HD
ENDBRANCH   8   9
ENDBRANCH   7   8
ENDBRANCH   1   7
TORSDOF 4
