REMARK  Name = ligand_9169519
REMARK  4 active torsions:
REMARK  status: ('A' for Active; 'I' for Inactive)
REMARK    1  A    between atoms: C_2  and  C_3
REMARK    2  A    between atoms: C_3  and  N_4
REMARK    3  A    between atoms: N_4  and  N_5
REMARK    4  A    between atoms: C_6  and  C_7
REMARK                            x       y       z     vdW  Elec       q    Type
REMARK                         _______ _______ _______ _____ _____    ______ ____
ROOT
ATOM      1  N   UNL     1       4.291  -1.371  -0.145  0.00  0.00    +0.000 N 
ATOM      2  H   UNL     1       3.637  -2.132   0.054  0.00  0.00    +0.000 HD
ENDROOT
BRANCH   1   3
ATOM      3  N   UNL     1       5.629  -1.590  -0.050  0.00  0.00    +0.000 NA
ATOM      4  C   UNL     1       6.015  -2.811  -0.136  0.00  0.00    +0.000 C 
BRANCH   4   5
ATOM      5  C   UNL     1       7.475  -3.047  -0.085  0.00  0.00    +0.000 C 
ATOM      6  C   UNL     1       8.316  -3.026  -1.328  0.00  0.00    +0.000 C 
ATOM      7  O   UNL     1       7.911  -4.257  -0.707  0.00  0.00    +0.000 OA
ENDBRANCH   4   5
ENDBRANCH   1   3
BRANCH   1   8
ATOM      8  C   UNL     1       3.762  -0.023   0.007  0.00  0.00    +0.000 C 
BRANCH   8  10
ATOM      9  C   UNL     1       0.943  -0.001  -0.147  0.00  0.00    +0.000 C 
ATOM     10  C   UNL     1       2.245  -0.011  -0.075  0.00  0.00    +0.000 C 
ENDBRANCH   8  10
ENDBRANCH   1   8
TORSDOF 4
