REMARK  Name = ligand_9170990
REMARK  6 active torsions:
REMARK  status: ('A' for Active; 'I' for Inactive)
REMARK    1  A    between atoms: C_1  and  C_2
REMARK    2  A    between atoms: C_2  and  C_3
REMARK    3  A    between atoms: C_2  and  C_5
REMARK    4  A    between atoms: C_3  and  O_4
REMARK    5  A    between atoms: C_5  and  N_6
REMARK    6  A    between atoms: C_8  and  C_9
REMARK                            x       y       z     vdW  Elec       q    Type
REMARK                         _______ _______ _______ _____ _____    ______ ____
ROOT
ATOM      1  C   UNL     1       3.138  -0.987  -0.742  0.00  0.00    +0.000 C 
ATOM      2  C   UNL     1       2.308  -2.050  -1.437  0.00  0.00    +0.000 C 
ATOM      3  C   UNL     1       3.276  -2.461  -0.365  0.00  0.00    +0.000 C 
ATOM      4  C   UNL     1       2.749  -3.073   0.888  0.00  0.00    +0.000 C 
ENDROOT
BRANCH   1   5
ATOM      5  N   UNL     1       4.257  -0.409  -1.518  0.00  0.00    +0.000 NA
ATOM      6  H   UNL     1       3.933   0.457  -1.965  0.00  0.00    +0.000 HD
ATOM      7  H   UNL     1       4.532  -1.020  -2.285  0.00  0.00    +0.000 HD
ENDBRANCH   1   5
BRANCH   1   9
ATOM      8  C   UNL     1       3.387   0.611   1.206  0.00  0.00    +0.000 C 
ATOM      9  C   UNL     1       2.415  -0.010   0.196  0.00  0.00    +0.000 C 
BRANCH   9  10
ATOM     10  C   UNL     1       1.639   1.065  -0.592  0.00  0.00    +0.000 C 
BRANCH  10  11
ATOM     11  O   UNL     1       2.487   1.967  -1.300  0.00  0.00    +0.000 OA
ATOM     12  H   UNL     1       2.993   2.469  -0.637  0.00  0.00    +0.000 HD
ENDBRANCH  10  11
ENDBRANCH   9  10
ENDBRANCH   1   9
TORSDOF 4
