REMARK  Name = ligand_9170797
REMARK  3 active torsions:
REMARK  status: ('A' for Active; 'I' for Inactive)
REMARK    1  A    between atoms: C_1  and  C_2
REMARK    2  A    between atoms: C_2  and  O_4
REMARK    3  A    between atoms: O_4  and  C_5
REMARK                            x       y       z     vdW  Elec       q    Type
REMARK                         _______ _______ _______ _____ _____    ______ ____
ROOT
ATOM      1  C   UNL     1       4.437   1.400   0.433  0.00  0.00    +0.000 A 
ATOM      2  C   UNL     1       4.505   2.414   1.324  0.00  0.00    +0.000 A 
ATOM      3  N   UNL     1       5.315   3.327   0.828  0.00  0.00    +0.000 N 
ATOM      4  N   UNL     1       5.808   2.931  -0.349  0.00  0.00    +0.000 NA
ATOM      5  N   UNL     1       5.243   1.741  -0.636  0.00  0.00    +0.000 NA
ATOM      6  H   UNL     1       5.565   4.215   1.263  0.00  0.00    +0.000 HD
ENDROOT
BRANCH   1   7
ATOM      7  O   UNL     1       3.420   0.690   0.561  0.00  0.00    +0.000 OA
BRANCH   7   9
ATOM      8  C   UNL     1       0.916   0.034  -0.044  0.00  0.00    +0.000 C 
ATOM      9  C   UNL     1       2.187  -0.252  -0.264  0.00  0.00    +0.000 C 
ATOM     10  C   UNL     1       3.329  -0.516  -0.481  0.00  0.00    +0.000 C 
ENDBRANCH   7   9
ENDBRANCH   1   7
TORSDOF 2
