REMARK  Name = ligand_9170891
REMARK  2 active torsions:
REMARK  status: ('A' for Active; 'I' for Inactive)
REMARK    1  A    between atoms: C_2  and  C_3
REMARK    2  A    between atoms: C_2  and  C_5
REMARK                            x       y       z     vdW  Elec       q    Type
REMARK                         _______ _______ _______ _____ _____    ______ ____
ROOT
ATOM      1  C   UNL     1       3.134   0.111  -1.342  0.00  0.00    +0.000 A 
ATOM      2  N   UNL     1       4.470   0.082  -1.423  0.00  0.00    +0.000 NA
ATOM      3  O   UNL     1       4.768   0.164  -2.778  0.00  0.00    +0.000 OA
ATOM      4  N   UNL     1       3.609   0.246  -3.541  0.00  0.00    +0.000 NA
ATOM      5  C   UNL     1       2.622   0.214  -2.649  0.00  0.00    +0.000 A 
ENDROOT
BRANCH   1   7
ATOM      6  C   UNL     1       1.037   0.062  -0.041  0.00  0.00    +0.000 C 
ATOM      7  C   UNL     1       2.380   0.046  -0.124  0.00  0.00    +0.000 C 
BRANCH   7   8
ATOM      8  C   UNL     1       3.121  -0.050   1.176  0.00  0.00    +0.000 C 
ATOM      9  O   UNL     1       2.569  -0.126   2.270  0.00  0.00    +0.000 OA
ENDBRANCH   7   8
ENDBRANCH   1   7
TORSDOF 2
