REMARK  Name = ligand_917170
REMARK  1 active torsions:
REMARK  status: ('A' for Active; 'I' for Inactive)
REMARK    1  A    between atoms: C_1  and  C_2
REMARK                            x       y       z     vdW  Elec       q    Type
REMARK                         _______ _______ _______ _____ _____    ______ ____
ROOT
ATOM      1  C   UNL     1       1.109   0.328   0.107  0.00  0.00    +0.000 C 
ATOM      2  C   UNL     1       2.593   0.081   0.032  0.00  0.00    +0.000 C 
ATOM      3  C   UNL     1       3.083  -1.154   0.246  0.00  0.00    +0.000 C 
ATOM      4  C   UNL     1       4.448  -1.590   0.076  0.00  0.00    +0.000 C 
ATOM      5  C   UNL     1       5.578  -0.874   0.143  0.00  0.00    +0.000 C 
ATOM      6  C   UNL     1       5.652   0.582   0.418  0.00  0.00    +0.000 C 
ATOM      7  N   UNL     1       6.805   1.160   0.573  0.00  0.00    +0.000 NA
ATOM      8  N   UNL     1       4.573   1.405   0.528  0.00  0.00    +0.000 N 
ATOM      9  C   UNL     1       3.416   1.288  -0.329  0.00  0.00    +0.000 C 
ATOM     10  H   UNL     1       7.569   0.483   0.485  0.00  0.00    +0.000 HD
ATOM     11  H   UNL     1       4.898   2.363   0.626  0.00  0.00    +0.000 HD
ENDROOT
TORSDOF 0
