REMARK  Name = ligand_9171357
REMARK  5 active torsions:
REMARK  status: ('A' for Active; 'I' for Inactive)
REMARK    1  A    between atoms: C_1  and  C_2
REMARK    2  A    between atoms: C_3  and  O_4
REMARK    3  A    between atoms: C_3  and  C_8
REMARK    4  A    between atoms: O_4  and  C_5
REMARK    5  A    between atoms: C_5  and  C_6
REMARK                            x       y       z     vdW  Elec       q    Type
REMARK                         _______ _______ _______ _____ _____    ______ ____
ROOT
ATOM      1  C   UNL     1       1.220   0.404   0.452  0.00  0.00    +0.000 C 
ATOM      2  C   UNL     1       2.619   0.042   0.119  0.00  0.00    +0.000 C 
ATOM      3  C   UNL     1       3.111  -0.736  -0.870  0.00  0.00    +0.000 C 
ENDROOT
BRANCH   3   4
ATOM      4  C   UNL     1       4.631  -0.736  -0.870  0.00  0.00    +0.000 C 
ATOM      5  N   UNL     1       5.892  -0.736  -0.870  0.00  0.00    +0.000 NA
ENDBRANCH   3   4
BRANCH   3   6
ATOM      6  O   UNL     1       2.299  -1.380  -1.778  0.00  0.00    +0.000 OA
BRANCH   6   7
ATOM      7  C   UNL     1       2.796  -1.986  -2.925  0.00  0.00    +0.000 C 
ATOM      8  C   UNL     1       3.640  -1.185  -3.873  0.00  0.00    +0.000 C 
ATOM      9  C   UNL     1       2.352  -3.206  -3.248  0.00  0.00    +0.000 C 
ENDBRANCH   6   7
ENDBRANCH   3   6
TORSDOF 3
