REMARK  Name = ligand_9171577
REMARK  8 active torsions:
REMARK  status: ('A' for Active; 'I' for Inactive)
REMARK    1  A    between atoms: C_1  and  C_2
REMARK    2  A    between atoms: C_2  and  C_3
REMARK    3  A    between atoms: C_3  and  O_4
REMARK    4  A    between atoms: C_3  and  C_5
REMARK    5  A    between atoms: C_5  and  C_6
REMARK    6  A    between atoms: C_6  and  C_7
REMARK    7  A    between atoms: C_6  and  C_8
REMARK    8  A    between atoms: C_6  and  N_9
REMARK                            x       y       z     vdW  Elec       q    Type
REMARK                         _______ _______ _______ _____ _____    ______ ____
ROOT
ATOM      1  C   UNL     1       4.171  -0.428   1.529  0.00  0.00    +0.000 C 
ENDROOT
BRANCH   1   2
ATOM      2  C   UNL     1       4.457  -1.056   2.915  0.00  0.00    +0.000 C 
ATOM      3  C   UNL     1       3.768  -0.274   4.043  0.00  0.00    +0.000 C 
ATOM      4  C   UNL     1       5.962  -1.243   3.185  0.00  0.00    +0.000 C 
BRANCH   2   5
ATOM      5  N   UNL     1       6.754  -0.015   3.164  0.00  0.00    +0.000 NA
ATOM      6  H   UNL     1       6.209   0.766   3.526  0.00  0.00    +0.000 HD
ATOM      7  H   UNL     1       7.001   0.220   2.204  0.00  0.00    +0.000 HD
ENDBRANCH   2   5
ENDBRANCH   1   2
BRANCH   1   8
ATOM      8  C   UNL     1       2.681  -0.472   1.155  0.00  0.00    +0.000 C 
BRANCH   8  10
ATOM      9  C   UNL     1       0.913   0.212  -0.522  0.00  0.00    +0.000 C 
ATOM     10  C   UNL     1       2.405   0.181  -0.207  0.00  0.00    +0.000 C 
ENDBRANCH   8  10
BRANCH   8  11
ATOM     11  O   UNL     1       2.243  -1.830   1.123  0.00  0.00    +0.000 OA
ATOM     12  H   UNL     1       2.739  -2.286   0.420  0.00  0.00    +0.000 HD
ENDBRANCH   8  11
ENDBRANCH   1   8
TORSDOF 5
