REMARK  Name = ligand_9171511
REMARK  6 active torsions:
REMARK  status: ('A' for Active; 'I' for Inactive)
REMARK    1  A    between atoms: C_1  and  C_2
REMARK    2  A    between atoms: C_2  and  C_3
REMARK    3  A    between atoms: C_2  and  C_5
REMARK    4  A    between atoms: C_3  and  O_4
REMARK    5  A    between atoms: C_5  and  C_6
REMARK    6  A    between atoms: C_6  and  C_8
REMARK                            x       y       z     vdW  Elec       q    Type
REMARK                         _______ _______ _______ _____ _____    ______ ____
ROOT
ATOM      1  C   UNL     1       0.930  -0.073  -0.023  0.00  0.00    +0.000 C 
ATOM      2  C   UNL     1       2.456  -0.141   0.094  0.00  0.00    +0.000 C 
ENDROOT
BRANCH   2   3
ATOM      3  C   UNL     1       2.856  -1.022   1.288  0.00  0.00    +0.000 C 
BRANCH   3   4
ATOM      4  O   UNL     1       2.323  -0.507   2.502  0.00  0.00    +0.000 OA
ATOM      5  H   UNL     1       2.657   0.399   2.616  0.00  0.00    +0.000 HD
ENDBRANCH   3   4
ENDBRANCH   2   3
BRANCH   2   6
ATOM      6  C   UNL     1       3.107  -0.669  -1.207  0.00  0.00    +0.000 C 
BRANCH   6   7
ATOM      7  C   UNL     1       2.868   0.186  -2.434  0.00  0.00    +0.000 C 
ATOM      8  C   UNL     1       2.260  -0.287  -3.538  0.00  0.00    +0.000 C 
BRANCH   7   9
ATOM      9  C   UNL     1       3.338   1.534  -2.432  0.00  0.00    +0.000 C 
ATOM     10  N   UNL     1       3.722   2.629  -2.418  0.00  0.00    +0.000 NA
ENDBRANCH   7   9
ENDBRANCH   6   7
ENDBRANCH   2   6
TORSDOF 5
