REMARK  Name = ligand_9171037
REMARK  4 active torsions:
REMARK  status: ('A' for Active; 'I' for Inactive)
REMARK    1  A    between atoms: C_1  and  C_2
REMARK    2  A    between atoms: C_2  and  C_3
REMARK    3  A    between atoms: C_3  and  O_4
REMARK    4  A    between atoms: O_4  and  C_5
REMARK                            x       y       z     vdW  Elec       q    Type
REMARK                         _______ _______ _______ _____ _____    ______ ____
ROOT
ATOM      1  C   UNL     1       5.121  -2.761   0.057  0.00  0.00    +0.000 C 
ATOM      2  N   UNL     1       4.452  -3.874  -0.031  0.00  0.00    +0.000 NA
ATOM      3  C   UNL     1       5.527  -4.905   0.044  0.00  0.00    +0.000 C 
ATOM      4  C   UNL     1       6.852  -4.161  -0.196  0.00  0.00    +0.000 C 
ATOM      5  N   UNL     1       6.473  -2.815   0.160  0.00  0.00    +0.000 N 
ATOM      6  H   UNL     1       6.975  -2.035  -0.239  0.00  0.00    +0.000 HD
ENDROOT
BRANCH   1   7
ATOM      7  O   UNL     1       4.590  -1.523   0.011  0.00  0.00    +0.000 OA
BRANCH   7   8
ATOM      8  C   UNL     1       3.156  -1.501  -0.032  0.00  0.00    +0.000 C 
BRANCH   8  10
ATOM      9  C   UNL     1       1.150   0.005  -0.040  0.00  0.00    +0.000 C 
ATOM     10  C   UNL     1       2.668  -0.056  -0.036  0.00  0.00    +0.000 C 
ENDBRANCH   8  10
ENDBRANCH   7   8
ENDBRANCH   1   7
TORSDOF 3
