REMARK  Name = ligand_9172296
REMARK  6 active torsions:
REMARK  status: ('A' for Active; 'I' for Inactive)
REMARK    1  A    between atoms: C_1  and  C_2
REMARK    2  A    between atoms: C_2  and  C_3
REMARK    3  A    between atoms: C_2  and  C_5
REMARK    4  A    between atoms: C_3  and  O_4
REMARK    5  A    between atoms: C_5  and  C_6
REMARK    6  A    between atoms: N_8  and  O_9
REMARK                            x       y       z     vdW  Elec       q    Type
REMARK                         _______ _______ _______ _____ _____    ______ ____
ROOT
ATOM      1  C   UNL     1       2.924  -2.483  -0.443  0.00  0.00    +0.000 C 
ATOM      2  N   UNL     1       2.318  -3.546  -0.007  0.00  0.00    +0.000 NA
ATOM      3  N   UNL     1       3.397  -2.438  -1.734  0.00  0.00    +0.000 N 
ATOM      4  H   UNL     1       2.030  -3.427   0.971  0.00  0.00    +0.000 HD
ATOM      5  H   UNL     1       4.129  -1.769  -1.960  0.00  0.00    +0.000 HD
ENDROOT
BRANCH   3   6
ATOM      6  O   UNL     1       3.620  -3.717  -2.262  0.00  0.00    +0.000 OA
ATOM      7  H   UNL     1       3.027  -4.279  -1.708  0.00  0.00    +0.000 HD
ENDBRANCH   3   6
BRANCH   1   8
ATOM      8  C   UNL     1       3.152  -1.286   0.467  0.00  0.00    +0.000 C 
BRANCH   8  10
ATOM      9  C   UNL     1       0.983  -0.101  -0.111  0.00  0.00    +0.000 C 
ATOM     10  C   UNL     1       2.510   0.011  -0.047  0.00  0.00    +0.000 C 
BRANCH  10  11
ATOM     11  C   UNL     1       2.929   1.177   0.860  0.00  0.00    +0.000 C 
BRANCH  11  12
ATOM     12  O   UNL     1       2.414   2.411   0.382  0.00  0.00    +0.000 OA
ATOM     13  H   UNL     1       2.765   2.557  -0.513  0.00  0.00    +0.000 HD
ENDBRANCH  11  12
ENDBRANCH  10  11
ENDBRANCH   8  10
ENDBRANCH   1   8
TORSDOF 5
