REMARK  Name = ligand_9172199
REMARK  4 active torsions:
REMARK  status: ('A' for Active; 'I' for Inactive)
REMARK    1  A    between atoms: C_1  and  C_2
REMARK    2  A    between atoms: C_2  and  C_3
REMARK    3  A    between atoms: C_3  and  C_5
REMARK    4  A    between atoms: C_5  and  N_7
REMARK                            x       y       z     vdW  Elec       q    Type
REMARK                         _______ _______ _______ _____ _____    ______ ____
ROOT
ATOM      1  C   UNL     1       4.583  -0.473   0.433  0.00  0.00    +0.000 C 
ATOM      2  C   UNL     1       5.604  -1.057   1.067  0.00  0.00    +0.000 C 
ENDROOT
BRANCH   1   3
ATOM      3  N   UNL     1       5.492  -2.030   2.026  0.00  0.00    +0.000 N 
ATOM      4  C   UNL     1       6.590  -2.624   2.609  0.00  0.00    +0.000 C 
ATOM      5  O   UNL     1       7.765  -2.390   2.356  0.00  0.00    +0.000 OA
ATOM      6  H   UNL     1       4.556  -2.313   2.318  0.00  0.00    +0.000 HD
ENDBRANCH   1   3
BRANCH   1   7
ATOM      7  C   UNL     1       3.131  -0.782   0.606  0.00  0.00    +0.000 C 
ATOM      8  O   UNL     1       2.725  -1.440   1.559  0.00  0.00    +0.000 OA
BRANCH   7  10
ATOM      9  C   UNL     1       0.755  -0.463  -0.306  0.00  0.00    +0.000 C 
ATOM     10  C   UNL     1       2.242  -0.252  -0.513  0.00  0.00    +0.000 C 
ENDBRANCH   7  10
ENDBRANCH   1   7
TORSDOF 3
