REMARK  Name = ligand_9173864
REMARK  5 active torsions:
REMARK  status: ('A' for Active; 'I' for Inactive)
REMARK    1  A    between atoms: C_1  and  C_2
REMARK    2  A    between atoms: C_2  and  C_3
REMARK    3  A    between atoms: C_3  and  O_4
REMARK    4  A    between atoms: N_5  and  N_6
REMARK    5  A    between atoms: C_7  and  C_8
REMARK                            x       y       z     vdW  Elec       q    Type
REMARK                         _______ _______ _______ _____ _____    ______ ____
ROOT
ATOM      1  C   UNL     1       1.058  -0.040   0.022  0.00  0.00    +0.000 C 
ATOM      2  C   UNL     1       2.564   0.040   0.012  0.00  0.00    +0.000 C 
ATOM      3  N   UNL     1       3.221  -1.074  -0.156  0.00  0.00    +0.000 NA
ENDROOT
BRANCH   3   4
ATOM      4  N   UNL     1       4.605  -0.929  -0.135  0.00  0.00    +0.000 NA
ATOM      5  C   UNL     1       5.173  -2.075  -0.295  0.00  0.00    +0.000 C 
BRANCH   5   6
ATOM      6  C   UNL     1       6.607  -2.013  -0.291  0.00  0.00    +0.000 C 
ATOM      7  N   UNL     1       7.771  -1.989  -0.293  0.00  0.00    +0.000 NA
ENDBRANCH   5   6
ENDBRANCH   3   4
BRANCH   2   8
ATOM      8  C   UNL     1       3.215   1.403   0.226  0.00  0.00    +0.000 C 
BRANCH   8   9
ATOM      9  O   UNL     1       4.043   1.785  -0.857  0.00  0.00    +0.000 OA
ATOM     10  H   UNL     1       4.745   1.105  -0.886  0.00  0.00    +0.000 HD
ENDBRANCH   8   9
ENDBRANCH   2   8
TORSDOF 4
