REMARK  Name = ligand_9173221
REMARK  2 active torsions:
REMARK  status: ('A' for Active; 'I' for Inactive)
REMARK    1  A    between atoms: C_1  and  C_2
REMARK    2  A    between atoms: C_2  and  C_3
REMARK                            x       y       z     vdW  Elec       q    Type
REMARK                         _______ _______ _______ _____ _____    ______ ____
ROOT
ATOM      1  C   UNL     1       3.162   1.039   1.179  0.00  0.00    +0.000 C 
ATOM      2  O   UNL     1       2.421   1.181   2.154  0.00  0.00    +0.000 OA
ATOM      3  N   UNL     1       4.539   1.160   1.254  0.00  0.00    +0.000 N 
ATOM      4  C   UNL     1       5.499   1.106   0.143  0.00  0.00    +0.000 C 
ATOM      5  C   UNL     1       6.869   1.027   0.820  0.00  0.00    +0.000 C 
ATOM      6  C   UNL     1       6.540   1.358   2.242  0.00  0.00    +0.000 C 
ATOM      7  C   UNL     1       5.218   1.396   2.424  0.00  0.00    +0.000 C 
ENDROOT
BRANCH   1   9
ATOM      8  C   UNL     1       1.115   0.450  -0.185  0.00  0.00    +0.000 C 
ATOM      9  C   UNL     1       2.616   0.686  -0.197  0.00  0.00    +0.000 C 
ENDBRANCH   1   9
TORSDOF 1
