REMARK  Name = ligand_9173364
REMARK  5 active torsions:
REMARK  status: ('A' for Active; 'I' for Inactive)
REMARK    1  A    between atoms: C_1  and  C_2
REMARK    2  A    between atoms: C_2  and  C_3
REMARK    3  A    between atoms: C_2  and  O_4
REMARK    4  A    between atoms: C_2  and  C_7
REMARK    5  A    between atoms: O_4  and  N_5
REMARK                            x       y       z     vdW  Elec       q    Type
REMARK                         _______ _______ _______ _____ _____    ______ ____
ROOT
ATOM      1  C   UNL     1       0.976   0.010  -0.075  0.00  0.00    +0.000 C 
ATOM      2  C   UNL     1       2.513   0.025  -0.071  0.00  0.00    +0.000 C 
ATOM      3  C   UNL     1       3.047   0.896   1.080  0.00  0.00    +0.000 C 
ENDROOT
BRANCH   2   4
ATOM      4  C   UNL     1       3.093   0.543  -1.379  0.00  0.00    +0.000 C 
ATOM      5  C   UNL     1       2.799   1.929  -1.908  0.00  0.00    +0.000 C 
ATOM      6  O   UNL     1       2.174   0.763  -2.460  0.00  0.00    +0.000 OA
ENDBRANCH   2   4
BRANCH   2   7
ATOM      7  O   UNL     1       3.008  -1.328   0.076  0.00  0.00    +0.000 OA
BRANCH   7   8
ATOM      8  N   UNL     1       2.564  -1.907   1.278  0.00  0.00    +0.000 NA
ATOM      9  C   UNL     1       3.028  -3.108   1.357  0.00  0.00    +0.000 C 
ENDBRANCH   7   8
ENDBRANCH   2   7
TORSDOF 3
