REMARK  Name = ligand_9173830
REMARK  4 active torsions:
REMARK  status: ('A' for Active; 'I' for Inactive)
REMARK    1  A    between atoms: C_1  and  C_2
REMARK    2  A    between atoms: C_2  and  C_3
REMARK    3  A    between atoms: N_5  and  N_6
REMARK    4  A    between atoms: N_5  and  C_7
REMARK                            x       y       z     vdW  Elec       q    Type
REMARK                         _______ _______ _______ _____ _____    ______ ____
ROOT
ATOM      1  C   UNL     1       2.910   0.526  -0.811  0.00  0.00    +0.000 C 
ATOM      2  O   UNL     1       2.381   1.575  -1.173  0.00  0.00    +0.000 OA
ATOM      3  N   UNL     1       4.285   0.362  -0.709  0.00  0.00    +0.000 N 
ENDROOT
BRANCH   3   4
ATOM      4  N   UNL     1       5.126   1.411  -1.119  0.00  0.00    +0.000 NA
ATOM      5  H   UNL     1       4.698  -0.545  -0.518  0.00  0.00    +0.000 HD
ATOM      6  H   UNL     1       4.552   2.044  -1.695  0.00  0.00    +0.000 HD
ENDBRANCH   3   4
BRANCH   3   7
ATOM      7  C   UNL     1       5.549   2.132   0.090  0.00  0.00    +0.000 C 
ATOM      8  C   UNL     1       6.519   3.271  -0.069  0.00  0.00    +0.000 C 
ATOM      9  C   UNL     1       6.960   1.995   0.588  0.00  0.00    +0.000 C 
ENDBRANCH   3   7
BRANCH   1  11
ATOM     10  C   UNL     1       0.652  -0.452  -0.296  0.00  0.00    +0.000 C 
ATOM     11  C   UNL     1       2.138  -0.726  -0.449  0.00  0.00    +0.000 C 
ENDBRANCH   1  11
TORSDOF 3
