REMARK  Name = ligand_9174182
REMARK  3 active torsions:
REMARK  status: ('A' for Active; 'I' for Inactive)
REMARK    1  A    between atoms: C_1  and  C_2
REMARK    2  A    between atoms: C_2  and  N_3
REMARK    3  A    between atoms: C_5  and  N_7
REMARK                            x       y       z     vdW  Elec       q    Type
REMARK                         _______ _______ _______ _____ _____    ______ ____
ROOT
ATOM      1  N   UNL     1       3.081  -0.998   1.117  0.00  0.00    +0.000 NA
ATOM      2  C   UNL     1       3.058  -2.413   0.660  0.00  0.00    +0.000 C 
ATOM      3  C   UNL     1       2.601  -2.821   2.081  0.00  0.00    +0.000 C 
ATOM      4  C   UNL     1       2.106  -1.355   2.180  0.00  0.00    +0.000 C 
ENDROOT
BRANCH   3   5
ATOM      5  N   UNL     1       3.701  -3.171   3.004  0.00  0.00    +0.000 N 
ATOM      6  C   UNL     1       4.214  -4.430   3.139  0.00  0.00    +0.000 C 
ATOM      7  O   UNL     1       5.173  -4.694   3.848  0.00  0.00    +0.000 OA
ATOM      8  H   UNL     1       4.232  -2.447   3.477  0.00  0.00    +0.000 HD
ENDBRANCH   3   5
BRANCH   1  10
ATOM      9  C   UNL     1       2.470   1.319   0.519  0.00  0.00    +0.000 C 
ATOM     10  C   UNL     1       2.476  -0.141   0.092  0.00  0.00    +0.000 C 
ENDBRANCH   1  10
TORSDOF 2
