REMARK  Name = ligand_9174637
REMARK  2 active torsions:
REMARK  status: ('A' for Active; 'I' for Inactive)
REMARK    1  A    between atoms: C_1  and  C_2
REMARK    2  A    between atoms: C_2  and  N_3
REMARK                            x       y       z     vdW  Elec       q    Type
REMARK                         _______ _______ _______ _____ _____    ______ ____
ROOT
ATOM      1  N   UNL     1       3.118  -0.796   1.316  0.00  0.00    +0.000 N 
ATOM      2  C   UNL     1       3.011  -2.154   1.407  0.00  0.00    +0.000 C 
ATOM      3  N   UNL     1       3.074  -2.661   2.602  0.00  0.00    +0.000 NA
ATOM      4  C   UNL     1       3.217  -1.582   3.468  0.00  0.00    +0.000 C 
ATOM      5  O   UNL     1       3.263  -1.606   4.687  0.00  0.00    +0.000 OA
ATOM      6  C   UNL     1       3.264  -0.338   2.606  0.00  0.00    +0.000 C 
ATOM      7  C   UNL     1       3.406   0.891   3.111  0.00  0.00    +0.000 C 
ENDROOT
BRANCH   1   9
ATOM      8  C   UNL     1       1.244   0.358   0.262  0.00  0.00    +0.000 C 
ATOM      9  C   UNL     1       2.714  -0.025   0.158  0.00  0.00    +0.000 C 
ENDBRANCH   1   9
TORSDOF 1
