REMARK  Name = ligand_9175597
REMARK  3 active torsions:
REMARK  status: ('A' for Active; 'I' for Inactive)
REMARK    1  A    between atoms: C_1  and  C_2
REMARK    2  A    between atoms: C_2  and  N_3
REMARK    3  A    between atoms: C_2  and  C_4
REMARK                            x       y       z     vdW  Elec       q    Type
REMARK                         _______ _______ _______ _____ _____    ______ ____
ROOT
ATOM      1  C   UNL     1       3.393  -1.190  -0.038  0.00  0.00    +0.000 C 
ATOM      2  C   UNL     1       4.109  -1.299  -1.392  0.00  0.00    +0.000 C 
ATOM      3  O   UNL     1       3.354  -2.027  -2.356  0.00  0.00    +0.000 OA
ATOM      4  C   UNL     1       3.001  -3.308  -1.859  0.00  0.00    +0.000 C 
ATOM      5  O   UNL     1       2.140  -3.186  -0.737  0.00  0.00    +0.000 OA
ATOM      6  C   UNL     1       2.818  -2.558   0.345  0.00  0.00    +0.000 C 
ENDROOT
BRANCH   1   8
ATOM      7  C   UNL     1       1.238  -0.086  -1.024  0.00  0.00    +0.000 C 
ATOM      8  C   UNL     1       2.378  -0.017  -0.012  0.00  0.00    +0.000 C 
BRANCH   8   9
ATOM      9  N   UNL     1       1.821   0.152   1.340  0.00  0.00    +0.000 NA
ATOM     10  H   UNL     1       1.104  -0.557   1.503  0.00  0.00    +0.000 HD
ATOM     11  H   UNL     1       1.321   1.041   1.385  0.00  0.00    +0.000 HD
ENDBRANCH   8   9
ENDBRANCH   1   8
TORSDOF 2
