REMARK  Name = ligand_9175482
REMARK  6 active torsions:
REMARK  status: ('A' for Active; 'I' for Inactive)
REMARK    1  A    between atoms: C_1  and  C_2
REMARK    2  A    between atoms: C_2  and  N_3
REMARK    3  A    between atoms: C_2  and  C_4
REMARK    4  A    between atoms: C_5  and  O_6
REMARK    5  A    between atoms: C_7  and  C_8
REMARK    6  A    between atoms: C_7  and  N_9
REMARK                            x       y       z     vdW  Elec       q    Type
REMARK                         _______ _______ _______ _____ _____    ______ ____
ROOT
ATOM      1  C   UNL     1       2.999  -0.763   1.370  0.00  0.00    +0.000 C 
ATOM      2  C   UNL     1       4.251  -1.603   1.292  0.00  0.00    +0.000 C 
ATOM      3  C   UNL     1       2.965  -2.246   1.740  0.00  0.00    +0.000 C 
ATOM      4  C   UNL     1       2.409  -3.342   0.890  0.00  0.00    +0.000 C 
ENDROOT
BRANCH   3   5
ATOM      5  N   UNL     1       1.199  -3.872   1.501  0.00  0.00    +0.000 NA
ATOM      6  H   UNL     1       0.561  -3.112   1.728  0.00  0.00    +0.000 HD
ATOM      7  H   UNL     1       1.431  -4.335   2.379  0.00  0.00    +0.000 HD
ENDBRANCH   3   5
BRANCH   1   9
ATOM      8  C   UNL     1       1.126   0.565   0.350  0.00  0.00    +0.000 C 
ATOM      9  C   UNL     1       2.440  -0.171   0.102  0.00  0.00    +0.000 C 
BRANCH   9  10
ATOM     10  N   UNL     1       3.435   0.771  -0.410  0.00  0.00    +0.000 NA
ATOM     11  H   UNL     1       3.614   1.501   0.277  0.00  0.00    +0.000 HD
ATOM     12  H   UNL     1       3.074   1.240  -1.236  0.00  0.00    +0.000 HD
ENDBRANCH   9  10
ENDBRANCH   1   9
BRANCH   2  13
ATOM     13  O   UNL     1       5.234  -1.381   2.315  0.00  0.00    +0.000 OA
ATOM     14  H   UNL     1       4.842  -1.305   3.200  0.00  0.00    +0.000 HD
ENDBRANCH   2  13
TORSDOF 4
