REMARK  Name = ligand_9176016
REMARK  4 active torsions:
REMARK  status: ('A' for Active; 'I' for Inactive)
REMARK    1  A    between atoms: C_1  and  C_2
REMARK    2  A    between atoms: C_2  and  N_3
REMARK    3  A    between atoms: N_3  and  C_4
REMARK    4  A    between atoms: C_4  and  C_5
REMARK                            x       y       z     vdW  Elec       q    Type
REMARK                         _______ _______ _______ _____ _____    ______ ____
ROOT
ATOM      1  C   UNL     1       4.528   1.151  -0.941  0.00  0.00    +0.000 C 
ENDROOT
BRANCH   1   2
ATOM      2  C   UNL     1       4.995   2.176  -1.906  0.00  0.00    +0.000 A 
ATOM      3  C   UNL     1       4.868   2.342  -3.265  0.00  0.00    +0.000 A 
ATOM      4  C   UNL     1       5.536   3.550  -3.524  0.00  0.00    +0.000 A 
ATOM      5  N   UNL     1       6.056   4.086  -2.416  0.00  0.00    +0.000 NA
ATOM      6  O   UNL     1       5.712   3.215  -1.394  0.00  0.00    +0.000 OA
ENDBRANCH   1   2
BRANCH   1   7
ATOM      7  N   UNL     1       3.065   1.074  -0.959  0.00  0.00    +0.000 NA
ATOM      8  H   UNL     1       2.688   1.989  -0.713  0.00  0.00    +0.000 HD
BRANCH   7  10
ATOM      9  C   UNL     1       1.053   0.026  -0.071  0.00  0.00    +0.000 C 
ATOM     10  C   UNL     1       2.573   0.070  -0.018  0.00  0.00    +0.000 C 
ENDBRANCH   7  10
ENDBRANCH   1   7
TORSDOF 3
