REMARK  Name = ligand_9176612
REMARK  5 active torsions:
REMARK  status: ('A' for Active; 'I' for Inactive)
REMARK    1  A    between atoms: C_1  and  C_2
REMARK    2  A    between atoms: C_2  and  N_3
REMARK    3  A    between atoms: C_4  and  C_5
REMARK    4  A    between atoms: C_4  and  C_7
REMARK    5  A    between atoms: C_7  and  O_8
REMARK                            x       y       z     vdW  Elec       q    Type
REMARK                         _______ _______ _______ _____ _____    ______ ____
ROOT
ATOM      1  C   UNL     1       1.044   0.050   0.127  0.00  0.00    +0.000 C 
ATOM      2  C   UNL     1       2.559   0.051  -0.010  0.00  0.00    +0.000 C 
ATOM      3  C   UNL     1       3.152  -0.262  -1.195  0.00  0.00    +0.000 C 
ENDROOT
BRANCH   2   4
ATOM      4  N   UNL     1       3.259   0.357   1.164  0.00  0.00    +0.000 N 
ATOM      5  H   UNL     1       2.642   0.401   1.980  0.00  0.00    +0.000 HD
ATOM      6  H   UNL     1       3.983  -0.343   1.366  0.00  0.00    +0.000 HD
ENDBRANCH   2   4
BRANCH   3   7
ATOM      7  C   UNL     1       2.411  -0.592  -2.410  0.00  0.00    +0.000 C 
ATOM      8  C   UNL     1       1.558   0.220  -3.049  0.00  0.00    +0.000 C 
ENDBRANCH   3   7
BRANCH   3   9
ATOM      9  C   UNL     1       4.650  -0.342  -1.330  0.00  0.00    +0.000 C 
ATOM     10  O   UNL     1       5.213  -1.038  -2.158  0.00  0.00    +0.000 OA
BRANCH   9  11
ATOM     11  O   UNL     1       5.327   0.452  -0.468  0.00  0.00    +0.000 OA
ATOM     12  H   UNL     1       4.702   0.965   0.095  0.00  0.00    +0.000 HD
ENDBRANCH   9  11
ENDBRANCH   3   9
TORSDOF 4
