REMARK  Name = ligand_9176655
REMARK  7 active torsions:
REMARK  status: ('A' for Active; 'I' for Inactive)
REMARK    1  A    between atoms: C_1  and  C_2
REMARK    2  A    between atoms: C_2  and  N_3
REMARK    3  A    between atoms: C_2  and  C_4
REMARK    4  A    between atoms: C_5  and  C_6
REMARK    5  A    between atoms: C_5  and  C_8
REMARK    6  A    between atoms: C_6  and  N_7
REMARK    7  A    between atoms: C_8  and  O_9
REMARK                            x       y       z     vdW  Elec       q    Type
REMARK                         _______ _______ _______ _____ _____    ______ ____
ROOT
ATOM      1  C   UNL     1       3.095   0.815  -0.986  0.00  0.00    +0.000 C 
ATOM      2  C   UNL     1       4.420   1.043  -1.151  0.00  0.00    +0.000 C 
ENDROOT
BRANCH   1   4
ATOM      3  C   UNL     1       2.023   0.636   1.274  0.00  0.00    +0.000 C 
ATOM      4  C   UNL     1       2.415  -0.096  -0.007  0.00  0.00    +0.000 C 
BRANCH   4   5
ATOM      5  N   UNL     1       1.223  -0.653  -0.649  0.00  0.00    +0.000 NA
ATOM      6  H   UNL     1       0.511   0.072  -0.721  0.00  0.00    +0.000 HD
ATOM      7  H   UNL     1       0.820  -1.369  -0.046  0.00  0.00    +0.000 HD
ENDBRANCH   4   5
ENDBRANCH   1   4
BRANCH   2   8
ATOM      8  C   UNL     1       5.491   0.470  -0.258  0.00  0.00    +0.000 C 
BRANCH   8   9
ATOM      9  N   UNL     1       6.488  -0.283  -1.007  0.00  0.00    +0.000 NA
ATOM     10  H   UNL     1       6.068  -1.152  -1.332  0.00  0.00    +0.000 HD
ATOM     11  H   UNL     1       7.235  -0.562  -0.373  0.00  0.00    +0.000 HD
ENDBRANCH   8   9
ENDBRANCH   2   8
BRANCH   2  12
ATOM     12  C   UNL     1       4.952   1.981  -2.220  0.00  0.00    +0.000 C 
BRANCH  12  13
ATOM     13  O   UNL     1       3.918   2.500  -3.052  0.00  0.00    +0.000 OA
ATOM     14  H   UNL     1       3.566   1.736  -3.543  0.00  0.00    +0.000 HD
ENDBRANCH  12  13
ENDBRANCH   2  12
TORSDOF 6
