REMARK  Name = ligand_9176558
REMARK  6 active torsions:
REMARK  status: ('A' for Active; 'I' for Inactive)
REMARK    1  A    between atoms: C_1  and  C_2
REMARK    2  A    between atoms: C_2  and  N_3
REMARK    3  A    between atoms: N_3  and  C_4
REMARK    4  A    between atoms: C_4  and  C_5
REMARK    5  A    between atoms: C_6  and  C_7
REMARK    6  A    between atoms: N_8  and  O_9
REMARK                            x       y       z     vdW  Elec       q    Type
REMARK                         _______ _______ _______ _____ _____    ______ ____
ROOT
ATOM      1  N   UNL     1       3.016  -1.155  -0.807  0.00  0.00    +0.000 N 
ATOM      2  C   UNL     1       4.394  -1.393  -0.932  0.00  0.00    +0.000 C 
ATOM      3  C   UNL     1       5.415  -0.438  -0.323  0.00  0.00    +0.000 C 
ATOM      4  N   UNL     1       4.811  -2.444  -1.598  0.00  0.00    +0.000 NA
ENDROOT
BRANCH   1   6
ATOM      5  C   UNL     1       2.319  -0.074   1.291  0.00  0.00    +0.000 C 
ATOM      6  C   UNL     1       2.469   0.067  -0.216  0.00  0.00    +0.000 C 
ENDBRANCH   1   6
BRANCH   1   7
ATOM      7  C   UNL     1       2.112  -2.128  -1.457  0.00  0.00    +0.000 C 
ATOM      8  C   UNL     1       0.619  -1.916  -1.281  0.00  0.00    +0.000 C 
ENDBRANCH   1   7
BRANCH   4   9
ATOM      9  O   UNL     1       6.206  -2.527  -1.659  0.00  0.00    +0.000 OA
ATOM     10  H   UNL     1       6.338  -3.331  -2.194  0.00  0.00    +0.000 HD
ENDBRANCH   4   9
TORSDOF 3
