REMARK  Name = ligand_9176013
REMARK  6 active torsions:
REMARK  status: ('A' for Active; 'I' for Inactive)
REMARK    1  A    between atoms: C_1  and  C_2
REMARK    2  A    between atoms: C_2  and  N_3
REMARK    3  A    between atoms: N_3  and  C_4
REMARK    4  A    between atoms: C_4  and  C_5
REMARK    5  A    between atoms: C_5  and  C_6
REMARK    6  A    between atoms: C_6  and  C_7
REMARK                            x       y       z     vdW  Elec       q    Type
REMARK                         _______ _______ _______ _____ _____    ______ ____
ROOT
ATOM      1  C   UNL     1       4.479   1.410   0.645  0.00  0.00    +0.000 C 
ENDROOT
BRANCH   1   2
ATOM      2  C   UNL     1       5.045   2.434   1.658  0.00  0.00    +0.000 C 
ATOM      3  C   UNL     1       6.354   3.674   0.665  0.00  0.00    +0.000 C 
ATOM      4  O   UNL     1       6.514   2.475   1.491  0.00  0.00    +0.000 OA
BRANCH   2   5
ATOM      5  C   UNL     1       4.667   2.122   3.100  0.00  0.00    +0.000 C 
ATOM      6  C   UNL     1       5.012   3.954   1.341  0.00  0.00    +0.000 C 
ENDBRANCH   2   5
ENDBRANCH   1   2
BRANCH   1   7
ATOM      7  N   UNL     1       3.007   1.366   0.610  0.00  0.00    +0.000 NA
ATOM      8  H   UNL     1       2.660   1.101   1.529  0.00  0.00    +0.000 HD
BRANCH   7  10
ATOM      9  C   UNL     1       1.060   0.284  -0.411  0.00  0.00    +0.000 C 
ATOM     10  C   UNL     1       2.574   0.352  -0.368  0.00  0.00    +0.000 C 
ENDBRANCH   7  10
ENDBRANCH   1   7
TORSDOF 4
