REMARK  Name = ligand_9177573
REMARK  6 active torsions:
REMARK  status: ('A' for Active; 'I' for Inactive)
REMARK    1  A    between atoms: C_1  and  C_2
REMARK    2  A    between atoms: C_2  and  N_3
REMARK    3  A    between atoms: C_2  and  C_4
REMARK    4  A    between atoms: C_4  and  O_6
REMARK    5  A    between atoms: O_6  and  C_7
REMARK    6  A    between atoms: N_8  and  O_9
REMARK                            x       y       z     vdW  Elec       q    Type
REMARK                         _______ _______ _______ _____ _____    ______ ____
ROOT
ATOM      1  C   UNL     1       2.056  -1.299   0.850  0.00  0.00    +0.000 C 
ATOM      2  C   UNL     1       2.977  -2.242   1.088  0.00  0.00    +0.000 C 
ENDROOT
BRANCH   1   4
ATOM      3  C   UNL     1       2.543   1.123   1.120  0.00  0.00    +0.000 C 
ATOM      4  C   UNL     1       2.200   0.012   0.127  0.00  0.00    +0.000 C 
BRANCH   4   5
ATOM      5  N   UNL     1       3.171  -0.033  -0.957  0.00  0.00    +0.000 NA
ATOM      6  H   UNL     1       4.073  -0.325  -0.577  0.00  0.00    +0.000 HD
ATOM      7  H   UNL     1       3.318   0.905  -1.326  0.00  0.00    +0.000 HD
ENDBRANCH   4   5
ENDBRANCH   1   4
BRANCH   1   8
ATOM      8  O   UNL     1       4.316  -2.137   0.726  0.00  0.00    +0.000 OA
BRANCH   8   9
ATOM      9  C   UNL     1       4.895  -3.335   0.470  0.00  0.00    +0.000 C 
ATOM     10  N   UNL     1       6.156  -3.419   0.216  0.00  0.00    +0.000 NA
BRANCH  10  11
ATOM     11  O   UNL     1       6.481  -4.768   0.004  0.00  0.00    +0.000 OA
ATOM     12  H   UNL     1       7.435  -4.724  -0.196  0.00  0.00    +0.000 HD
ENDBRANCH  10  11
ENDBRANCH   8   9
ENDBRANCH   1   8
TORSDOF 5
