REMARK  Name = ligand_9177577
REMARK  6 active torsions:
REMARK  status: ('A' for Active; 'I' for Inactive)
REMARK    1  A    between atoms: C_1  and  C_2
REMARK    2  A    between atoms: C_2  and  N_3
REMARK    3  A    between atoms: C_2  and  C_4
REMARK    4  A    between atoms: C_4  and  C_5
REMARK    5  A    between atoms: C_4  and  O_6
REMARK    6  A    between atoms: O_6  and  C_7
REMARK                            x       y       z     vdW  Elec       q    Type
REMARK                         _______ _______ _______ _____ _____    ______ ____
ROOT
ATOM      1  C   UNL     1       3.123   1.561  -0.051  0.00  0.00    +0.000 C 
ATOM      2  C   UNL     1       2.577   2.371   1.124  0.00  0.00    +0.000 C 
ENDROOT
BRANCH   1   4
ATOM      3  C   UNL     1       3.123  -0.696  -1.240  0.00  0.00    +0.000 C 
ATOM      4  C   UNL     1       2.623   0.090  -0.027  0.00  0.00    +0.000 C 
BRANCH   4   5
ATOM      5  N   UNL     1       3.034  -0.612   1.200  0.00  0.00    +0.000 NA
ATOM      6  H   UNL     1       4.054  -0.608   1.250  0.00  0.00    +0.000 HD
ATOM      7  H   UNL     1       2.752  -1.591   1.151  0.00  0.00    +0.000 HD
ENDBRANCH   4   5
ENDBRANCH   1   4
BRANCH   1   8
ATOM      8  O   UNL     1       4.567   1.580   0.023  0.00  0.00    +0.000 OA
BRANCH   8   9
ATOM      9  C   UNL     1       5.224   2.132  -1.020  0.00  0.00    +0.000 C 
ATOM     10  N   UNL     1       6.556   2.050  -0.822  0.00  0.00    +0.000 N 
ATOM     11  O   UNL     1       4.725   2.628  -2.019  0.00  0.00    +0.000 OA
ATOM     12  H   UNL     1       6.919   1.637   0.022  0.00  0.00    +0.000 HD
ATOM     13  H   UNL     1       7.177   2.431  -1.521  0.00  0.00    +0.000 HD
ENDBRANCH   8   9
ENDBRANCH   1   8
TORSDOF 4
