REMARK  Name = ligand_9177636
REMARK  5 active torsions:
REMARK  status: ('A' for Active; 'I' for Inactive)
REMARK    1  A    between atoms: C_1  and  C_2
REMARK    2  A    between atoms: C_2  and  N_3
REMARK    3  A    between atoms: C_4  and  C_5
REMARK    4  A    between atoms: N_7  and  C_8
REMARK    5  A    between atoms: C_8  and  C_9
REMARK                            x       y       z     vdW  Elec       q    Type
REMARK                         _______ _______ _______ _____ _____    ______ ____
ROOT
ATOM      1  N   UNL     1       3.083   0.535  -1.349  0.00  0.00    +0.000 N 
ATOM      2  C   UNL     1       4.434   0.686  -1.603  0.00  0.00    +0.000 C 
ATOM      3  N   UNL     1       4.866   1.300  -2.656  0.00  0.00    +0.000 NA
ATOM      4  H   UNL     1       2.891   0.163  -0.419  0.00  0.00    +0.000 HD
ENDROOT
BRANCH   1   6
ATOM      5  C   UNL     1       0.714   1.089  -1.397  0.00  0.00    +0.000 C 
ATOM      6  C   UNL     1       2.109   1.484  -1.851  0.00  0.00    +0.000 C 
ENDBRANCH   1   6
BRANCH   2   7
ATOM      7  C   UNL     1       5.369   0.093  -0.541  0.00  0.00    +0.000 C 
ATOM      8  O   UNL     1       4.897  -0.415   0.468  0.00  0.00    +0.000 OA
ENDBRANCH   2   7
BRANCH   3   9
ATOM      9  C   UNL     1       6.294   1.428  -2.912  0.00  0.00    +0.000 C 
ATOM     10  C   UNL     1       6.485   2.091  -4.265  0.00  0.00    +0.000 C 
ENDBRANCH   3   9
TORSDOF 3
