REMARK  Name = ligand_9177012
REMARK  7 active torsions:
REMARK  status: ('A' for Active; 'I' for Inactive)
REMARK    1  A    between atoms: C_1  and  C_2
REMARK    2  A    between atoms: C_2  and  N_3
REMARK    3  A    between atoms: N_3  and  C_4
REMARK    4  A    between atoms: C_4  and  C_5
REMARK    5  A    between atoms: C_5  and  C_6
REMARK    6  A    between atoms: C_6  and  O_7
REMARK    7  A    between atoms: O_7  and  N_8
REMARK                            x       y       z     vdW  Elec       q    Type
REMARK                         _______ _______ _______ _____ _____    ______ ____
ROOT
ATOM      1  C   UNL     1       4.567  -0.519  -1.238  0.00  0.00    +0.000 C 
ENDROOT
BRANCH   1   2
ATOM      2  N   UNL     1       3.104  -0.516  -1.214  0.00  0.00    +0.000 NA
ATOM      3  H   UNL     1       2.742   0.020  -2.000  0.00  0.00    +0.000 HD
BRANCH   2   5
ATOM      4  C   UNL     1       1.080   0.058   0.019  0.00  0.00    +0.000 C 
ATOM      5  C   UNL     1       2.599   0.064   0.026  0.00  0.00    +0.000 C 
ENDBRANCH   2   5
ENDBRANCH   1   2
BRANCH   1   6
ATOM      6  C   UNL     1       5.082  -1.122  -2.543  0.00  0.00    +0.000 C 
BRANCH   6   7
ATOM      7  C   UNL     1       4.611  -0.334  -3.760  0.00  0.00    +0.000 C 
BRANCH   7   8
ATOM      8  O   UNL     1       5.132  -0.957  -4.936  0.00  0.00    +0.000 OA
BRANCH   8   9
ATOM      9  N   UNL     1       4.690  -0.231  -6.051  0.00  0.00    +0.000 NA
ATOM     10  C   UNL     1       5.159  -0.798  -7.117  0.00  0.00    +0.000 C 
ENDBRANCH   8   9
ENDBRANCH   7   8
ENDBRANCH   6   7
ENDBRANCH   1   6
TORSDOF 6
