REMARK  Name = ligand_9178680
REMARK  6 active torsions:
REMARK  status: ('A' for Active; 'I' for Inactive)
REMARK    1  A    between atoms: C_1  and  C_2
REMARK    2  A    between atoms: C_2  and  N_3
REMARK    3  A    between atoms: C_4  and  O_5
REMARK    4  A    between atoms: O_5  and  C_6
REMARK    5  A    between atoms: N_7  and  C_8
REMARK    6  A    between atoms: C_8  and  C_9
REMARK                            x       y       z     vdW  Elec       q    Type
REMARK                         _______ _______ _______ _____ _____    ______ ____
ROOT
ATOM      1  N   UNL     1       3.082  -1.091   0.564  0.00  0.00    +0.000 N 
ATOM      2  C   UNL     1       4.376  -1.464   0.775  0.00  0.00    +0.000 C 
ATOM      3  N   UNL     1       4.709  -2.552   1.384  0.00  0.00    +0.000 NA
ATOM      4  H   UNL     1       2.873  -0.231   0.087  0.00  0.00    +0.000 HD
ENDROOT
BRANCH   1   6
ATOM      5  C   UNL     1       0.648  -1.207   0.630  0.00  0.00    +0.000 C 
ATOM      6  C   UNL     1       1.955  -1.885   1.011  0.00  0.00    +0.000 C 
ENDBRANCH   1   6
BRANCH   2   7
ATOM      7  O   UNL     1       5.344  -0.633   0.310  0.00  0.00    +0.000 OA
ATOM      8  C   UNL     1       5.066   0.588  -0.384  0.00  0.00    +0.000 C 
ENDBRANCH   2   7
BRANCH   3   9
ATOM      9  C   UNL     1       6.152  -2.780   1.513  0.00  0.00    +0.000 C 
ATOM     10  C   UNL     1       6.383  -4.087   2.249  0.00  0.00    +0.000 C 
ENDBRANCH   3   9
TORSDOF 3
