REMARK  Name = ligand_9178672
REMARK  6 active torsions:
REMARK  status: ('A' for Active; 'I' for Inactive)
REMARK    1  A    between atoms: C_1  and  C_2
REMARK    2  A    between atoms: C_2  and  N_3
REMARK    3  A    between atoms: C_4  and  O_5
REMARK    4  A    between atoms: O_5  and  C_6
REMARK    5  A    between atoms: N_7  and  C_8
REMARK    6  A    between atoms: N_7  and  C_9
REMARK                            x       y       z     vdW  Elec       q    Type
REMARK                         _______ _______ _______ _____ _____    ______ ____
ROOT
ATOM      1  N   UNL     1       3.049   0.837   1.016  0.00  0.00    +0.000 NA
ATOM      2  C   UNL     1       4.317   0.983   1.199  0.00  0.00    +0.000 C 
ATOM      3  N   UNL     1       4.820   1.788   2.206  0.00  0.00    +0.000 N 
ATOM      4  C   UNL     1       3.944   2.514   3.113  0.00  0.00    +0.000 C 
ATOM      5  C   UNL     1       6.241   1.985   2.456  0.00  0.00    +0.000 C 
ENDROOT
BRANCH   1   7
ATOM      6  C   UNL     1       0.922   0.110   0.104  0.00  0.00    +0.000 C 
ATOM      7  C   UNL     1       2.435   0.020  -0.006  0.00  0.00    +0.000 C 
ENDBRANCH   1   7
BRANCH   2   8
ATOM      8  O   UNL     1       5.325   0.415   0.491  0.00  0.00    +0.000 OA
ATOM      9  C   UNL     1       5.204  -0.478  -0.620  0.00  0.00    +0.000 C 
ENDBRANCH   2   8
TORSDOF 2
