REMARK  Name = ligand_9178477
REMARK  4 active torsions:
REMARK  status: ('A' for Active; 'I' for Inactive)
REMARK    1  A    between atoms: C_1  and  C_2
REMARK    2  A    between atoms: C_2  and  N_3
REMARK    3  A    between atoms: C_4  and  C_6
REMARK    4  A    between atoms: C_7  and  C_8
REMARK                            x       y       z     vdW  Elec       q    Type
REMARK                         _______ _______ _______ _____ _____    ______ ____
ROOT
ATOM      1  N   UNL     1       3.177   1.149   0.880  0.00  0.00    +0.000 N 
ATOM      2  C   UNL     1       4.527   1.312   1.061  0.00  0.00    +0.000 C 
ATOM      3  O   UNL     1       5.393   0.649   0.508  0.00  0.00    +0.000 OA
ATOM      4  H   UNL     1       2.541   1.717   1.424  0.00  0.00    +0.000 HD
ENDROOT
BRANCH   1   6
ATOM      5  C   UNL     1       2.453  -1.192   0.718  0.00  0.00    +0.000 C 
ATOM      6  C   UNL     1       2.645   0.132   0.001  0.00  0.00    +0.000 C 
ENDBRANCH   1   6
BRANCH   2   7
ATOM      7  C   UNL     1       4.916   2.356   1.977  0.00  0.00    +0.000 C 
ATOM      8  C   UNL     1       5.290   3.219   2.724  0.00  0.00    +0.000 C 
BRANCH   8   9
ATOM      9  C   UNL     1       5.813   4.311   3.665  0.00  0.00    +0.000 C 
ATOM     10  C   UNL     1       6.249   5.159   4.394  0.00  0.00    +0.000 C 
ENDBRANCH   8   9
ENDBRANCH   2   7
TORSDOF 3
