REMARK  Name = ligand_9178905
REMARK  6 active torsions:
REMARK  status: ('A' for Active; 'I' for Inactive)
REMARK    1  A    between atoms: C_1  and  C_2
REMARK    2  A    between atoms: C_2  and  N_3
REMARK    3  A    between atoms: C_4  and  O_6
REMARK    4  A    between atoms: O_6  and  C_7
REMARK    5  A    between atoms: C_7  and  C_8
REMARK    6  A    between atoms: C_8  and  N_9
REMARK                            x       y       z     vdW  Elec       q    Type
REMARK                         _______ _______ _______ _____ _____    ______ ____
ROOT
ATOM      1  N   UNL     1       3.094   0.027  -1.367  0.00  0.00    +0.000 N 
ATOM      2  C   UNL     1       4.391   0.374  -1.587  0.00  0.00    +0.000 C 
ATOM      3  O   UNL     1       5.256   0.496  -0.734  0.00  0.00    +0.000 OA
ATOM      4  H   UNL     1       2.492   0.077  -2.178  0.00  0.00    +0.000 HD
ENDROOT
BRANCH   1   6
ATOM      5  C   UNL     1       2.269  -1.480   0.371  0.00  0.00    +0.000 C 
ATOM      6  C   UNL     1       2.509  -0.046  -0.046  0.00  0.00    +0.000 C 
ENDBRANCH   1   6
BRANCH   2   7
ATOM      7  O   UNL     1       4.536   0.679  -2.898  0.00  0.00    +0.000 OA
BRANCH   7   8
ATOM      8  C   UNL     1       5.518   1.691  -3.172  0.00  0.00    +0.000 C 
BRANCH   8   9
ATOM      9  C   UNL     1       6.830   1.126  -3.718  0.00  0.00    +0.000 C 
BRANCH   9  10
ATOM     10  N   UNL     1       6.651   0.462  -5.013  0.00  0.00    +0.000 NA
ATOM     11  H   UNL     1       6.054  -0.354  -4.877  0.00  0.00    +0.000 HD
ATOM     12  H   UNL     1       7.552   0.108  -5.333  0.00  0.00    +0.000 HD
ENDBRANCH   9  10
ENDBRANCH   8   9
ENDBRANCH   7   8
ENDBRANCH   2   7
TORSDOF 5
