REMARK  Name = ligand_9179604
REMARK  7 active torsions:
REMARK  status: ('A' for Active; 'I' for Inactive)
REMARK    1  A    between atoms: C_1  and  C_2
REMARK    2  A    between atoms: N_3  and  N_4
REMARK    3  A    between atoms: N_4  and  C_5
REMARK    4  A    between atoms: C_5  and  C_6
REMARK    5  A    between atoms: C_6  and  O_7
REMARK    6  A    between atoms: C_6  and  C_8
REMARK    7  A    between atoms: C_8  and  N_9
REMARK                            x       y       z     vdW  Elec       q    Type
REMARK                         _______ _______ _______ _____ _____    ______ ____
ROOT
ATOM      1  C   UNL     1       6.711  -0.466  -2.075  0.00  0.00    +0.000 C 
ENDROOT
BRANCH   1   2
ATOM      2  O   UNL     1       6.951  -1.497  -1.100  0.00  0.00    +0.000 OA
ATOM      3  H   UNL     1       7.722  -2.000  -1.427  0.00  0.00    +0.000 HD
ENDBRANCH   1   2
BRANCH   1   4
ATOM      4  C   UNL     1       5.209  -0.411  -2.369  0.00  0.00    +0.000 C 
BRANCH   4   5
ATOM      5  N   UNL     1       4.475  -0.032  -1.155  0.00  0.00    +0.000 N 
ATOM      6  H   UNL     1       4.811  -0.644  -0.398  0.00  0.00    +0.000 HD
BRANCH   5   9
ATOM      7  C   UNL     1       1.030   0.372  -0.135  0.00  0.00    +0.000 C 
ATOM      8  C   UNL     1       2.523   0.303  -0.171  0.00  0.00    +0.000 C 
ATOM      9  N   UNL     1       3.131  -0.011  -1.270  0.00  0.00    +0.000 NA
ENDBRANCH   5   9
ENDBRANCH   4   5
ENDBRANCH   1   4
BRANCH   1  10
ATOM     10  C   UNL     1       7.499  -0.770  -3.365  0.00  0.00    +0.000 C 
BRANCH  10  11
ATOM     11  N   UNL     1       8.936  -0.876  -3.084  0.00  0.00    +0.000 NA
ATOM     12  H   UNL     1       9.267  -0.008  -2.657  0.00  0.00    +0.000 HD
ATOM     13  H   UNL     1       9.444  -0.950  -3.969  0.00  0.00    +0.000 HD
ENDBRANCH  10  11
ENDBRANCH   1  10
TORSDOF 6
