REMARK  Name = ligand_9179215
REMARK  4 active torsions:
REMARK  status: ('A' for Active; 'I' for Inactive)
REMARK    1  A    between atoms: C_1  and  C_2
REMARK    2  A    between atoms: C_2  and  N_3
REMARK    3  A    between atoms: C_2  and  C_6
REMARK    4  A    between atoms: N_3  and  N_4
REMARK                            x       y       z     vdW  Elec       q    Type
REMARK                         _______ _______ _______ _____ _____    ______ ____
ROOT
ATOM      1  C   UNL     1       1.088   0.034   0.005  0.00  0.00    +0.000 C 
ATOM      2  C   UNL     1       2.595  -0.205  -0.061  0.00  0.00    +0.000 C 
ENDROOT
BRANCH   2   3
ATOM      3  C   UNL     1       3.137  -0.176  -1.497  0.00  0.00    +0.000 C 
ATOM      4  C   UNL     1       2.961   1.087  -2.357  0.00  0.00    +0.000 C 
ATOM      5  C   UNL     1       2.463   0.112  -3.422  0.00  0.00    +0.000 C 
ATOM      6  O   UNL     1       2.313  -0.942  -2.434  0.00  0.00    +0.000 OA
ENDBRANCH   2   3
BRANCH   2   7
ATOM      7  N   UNL     1       2.876  -1.504   0.574  0.00  0.00    +0.000 N 
ATOM      8  H   UNL     1       2.646  -2.246  -0.097  0.00  0.00    +0.000 HD
BRANCH   7   9
ATOM      9  N   UNL     1       4.104  -1.649   1.126  0.00  0.00    +0.000 NA
ATOM     10  C   UNL     1       4.272  -2.795   1.704  0.00  0.00    +0.000 C 
ENDBRANCH   7   9
ENDBRANCH   2   7
TORSDOF 3
