REMARK  Name = ligand_9179275
REMARK  5 active torsions:
REMARK  status: ('A' for Active; 'I' for Inactive)
REMARK    1  A    between atoms: C_1  and  C_2
REMARK    2  A    between atoms: N_3  and  N_4
REMARK    3  A    between atoms: N_4  and  C_5
REMARK    4  A    between atoms: C_6  and  C_7
REMARK    5  A    between atoms: C_6  and  C_8
REMARK                            x       y       z     vdW  Elec       q    Type
REMARK                         _______ _______ _______ _____ _____    ______ ____
ROOT
ATOM      1  N   UNL     1       4.533  -0.422  -0.935  0.00  0.00    +0.000 N 
ATOM      2  H   UNL     1       3.838   0.207  -1.350  0.00  0.00    +0.000 HD
ENDROOT
BRANCH   1   5
ATOM      3  C   UNL     1       2.631  -1.329   2.037  0.00  0.00    +0.000 C 
ATOM      4  C   UNL     1       3.252  -0.609   0.881  0.00  0.00    +0.000 C 
ATOM      5  N   UNL     1       4.026  -1.226   0.049  0.00  0.00    +0.000 NA
ENDBRANCH   1   5
BRANCH   1   6
ATOM      6  C   UNL     1       5.311  -1.002  -1.916  0.00  0.00    +0.000 C 
ATOM      7  C   UNL     1       6.650  -1.076  -1.938  0.00  0.00    +0.000 C 
ATOM      8  C   UNL     1       7.551  -0.532  -0.877  0.00  0.00    +0.000 C 
BRANCH   7   9
ATOM      9  C   UNL     1       7.295  -1.709  -3.111  0.00  0.00    +0.000 C 
ATOM     10  O   UNL     1       8.513  -1.751  -3.250  0.00  0.00    +0.000 OA
ENDBRANCH   7   9
ENDBRANCH   1   6
TORSDOF 3
