REMARK  Name = ligand_9179577
REMARK  6 active torsions:
REMARK  status: ('A' for Active; 'I' for Inactive)
REMARK    1  A    between atoms: C_1  and  C_2
REMARK    2  A    between atoms: C_2  and  N_3
REMARK    3  A    between atoms: N_3  and  N_4
REMARK    4  A    between atoms: C_5  and  C_6
REMARK    5  A    between atoms: C_5  and  O_7
REMARK    6  A    between atoms: O_7  and  C_8
REMARK                            x       y       z     vdW  Elec       q    Type
REMARK                         _______ _______ _______ _____ _____    ______ ____
ROOT
ATOM      1  N   UNL     1       4.325  -1.177   1.030  0.00  0.00    +0.000 NA
ATOM      2  C   UNL     1       4.724  -2.186   1.754  0.00  0.00    +0.000 C 
ATOM      3  C   UNL     1       3.879  -3.083   2.620  0.00  0.00    +0.000 C 
ENDROOT
BRANCH   1   4
ATOM      4  N   UNL     1       2.985  -0.964   1.022  0.00  0.00    +0.000 N 
ATOM      5  H   UNL     1       2.506  -1.707   0.505  0.00  0.00    +0.000 HD
BRANCH   4   7
ATOM      6  C   UNL     1       1.001   0.292   0.374  0.00  0.00    +0.000 C 
ATOM      7  C   UNL     1       2.516   0.331   0.531  0.00  0.00    +0.000 C 
ENDBRANCH   4   7
ENDBRANCH   1   4
BRANCH   2   8
ATOM      8  O   UNL     1       6.034  -2.589   1.864  0.00  0.00    +0.000 OA
BRANCH   8   9
ATOM      9  C   UNL     1       6.995  -2.081   0.986  0.00  0.00    +0.000 C 
ATOM     10  C   UNL     1       8.299  -2.268   1.207  0.00  0.00    +0.000 C 
ENDBRANCH   8   9
ENDBRANCH   2   8
TORSDOF 4
