REMARK  Name = ligand_9179729
REMARK  5 active torsions:
REMARK  status: ('A' for Active; 'I' for Inactive)
REMARK    1  A    between atoms: C_1  and  C_2
REMARK    2  A    between atoms: C_2  and  N_3
REMARK    3  A    between atoms: N_3  and  N_4
REMARK    4  A    between atoms: C_5  and  C_6
REMARK    5  A    between atoms: N_8  and  C_9
REMARK                            x       y       z     vdW  Elec       q    Type
REMARK                         _______ _______ _______ _____ _____    ______ ____
ROOT
ATOM      1  N   UNL     1       4.467   1.438   0.676  0.00  0.00    +0.000 NA
ATOM      2  C   UNL     1       4.886   2.650   0.833  0.00  0.00    +0.000 C 
ENDROOT
BRANCH   2   3
ATOM      3  C   UNL     1       6.367   2.950   0.833  0.00  0.00    +0.000 C 
ATOM      4  O   UNL     1       6.993   2.912  -0.212  0.00  0.00    +0.000 OA
ATOM      5  N   UNL     1       6.857   3.302   2.070  0.00  0.00    +0.000 N 
ATOM      6  C   UNL     1       8.252   3.594   2.285  0.00  0.00    +0.000 C 
ATOM      7  H   UNL     1       6.237   3.274   2.869  0.00  0.00    +0.000 HD
ENDBRANCH   2   3
BRANCH   1   8
ATOM      8  N   UNL     1       3.116   1.297   0.693  0.00  0.00    +0.000 N 
ATOM      9  H   UNL     1       2.619   2.071   0.248  0.00  0.00    +0.000 HD
BRANCH   8  11
ATOM     10  C   UNL     1       1.093   0.027   0.125  0.00  0.00    +0.000 C 
ATOM     11  C   UNL     1       2.614   0.026   0.162  0.00  0.00    +0.000 C 
ENDBRANCH   8  11
ENDBRANCH   1   8
TORSDOF 3
