REMARK  Name = ligand_9179636
REMARK  5 active torsions:
REMARK  status: ('A' for Active; 'I' for Inactive)
REMARK    1  A    between atoms: C_1  and  C_2
REMARK    2  A    between atoms: C_2  and  N_3
REMARK    3  A    between atoms: N_3  and  N_4
REMARK    4  A    between atoms: C_5  and  C_6
REMARK    5  A    between atoms: C_5  and  C_8
REMARK                            x       y       z     vdW  Elec       q    Type
REMARK                         _______ _______ _______ _____ _____    ______ ____
ROOT
ATOM      1  N   UNL     1       4.354  -0.339   1.668  0.00  0.00    +0.000 NA
ATOM      2  C   UNL     1       4.710  -0.638   2.884  0.00  0.00    +0.000 C 
ENDROOT
BRANCH   1   3
ATOM      3  N   UNL     1       3.039  -0.275   1.407  0.00  0.00    +0.000 N 
ATOM      4  H   UNL     1       2.344  -0.455   2.141  0.00  0.00    +0.000 HD
BRANCH   3   6
ATOM      5  C   UNL     1       1.021   0.046   0.086  0.00  0.00    +0.000 C 
ATOM      6  C   UNL     1       2.542   0.047   0.087  0.00  0.00    +0.000 C 
ENDBRANCH   3   6
ENDBRANCH   1   3
BRANCH   2   7
ATOM      7  C   UNL     1       3.815  -0.928   4.062  0.00  0.00    +0.000 C 
ATOM      8  O   UNL     1       2.595  -0.912   3.990  0.00  0.00    +0.000 OA
ENDBRANCH   2   7
BRANCH   2   9
ATOM      9  C   UNL     1       6.143  -0.678   3.048  0.00  0.00    +0.000 C 
ATOM     10  N   UNL     1       7.285  -0.729   3.254  0.00  0.00    +0.000 NA
ENDBRANCH   2   9
TORSDOF 4
