REMARK  Name = ligand_9180508
REMARK  6 active torsions:
REMARK  status: ('A' for Active; 'I' for Inactive)
REMARK    1  A    between atoms: C_1  and  C_2
REMARK    2  A    between atoms: C_2  and  N_3
REMARK    3  A    between atoms: N_3  and  O_4
REMARK    4  A    between atoms: N_6  and  N_7
REMARK    5  A    between atoms: N_7  and  C_8
REMARK    6  A    between atoms: N_7  and  C_9
REMARK                            x       y       z     vdW  Elec       q    Type
REMARK                         _______ _______ _______ _____ _____    ______ ____
ROOT
ATOM      1  N   UNL     1       2.955   0.858   1.183  0.00  0.00    +0.000 N 
ATOM      2  C   UNL     1       4.280   0.784   1.567  0.00  0.00    +0.000 C 
ATOM      3  N   UNL     1       4.852   1.390   2.562  0.00  0.00    +0.000 NA
ENDROOT
BRANCH   3   4
ATOM      4  N   UNL     1       6.158   1.032   2.733  0.00  0.00    +0.000 N 
ATOM      5  C   UNL     1       7.145   1.494   1.753  0.00  0.00    +0.000 C 
ATOM      6  C   UNL     1       6.692   1.250   4.086  0.00  0.00    +0.000 C 
ENDBRANCH   3   4
BRANCH   1   8
ATOM      7  C   UNL     1       1.527   0.064   3.040  0.00  0.00    +0.000 C 
ATOM      8  C   UNL     1       1.902   1.224   2.130  0.00  0.00    +0.000 C 
ENDBRANCH   1   8
BRANCH   1   9
ATOM      9  O   UNL     1       2.588  -0.170   0.297  0.00  0.00    +0.000 OA
ATOM     10  H   UNL     1       1.765   0.156  -0.112  0.00  0.00    +0.000 HD
ENDBRANCH   1   9
TORSDOF 3
