REMARK  Name = ligand_9180793
REMARK  4 active torsions:
REMARK  status: ('A' for Active; 'I' for Inactive)
REMARK    1  A    between atoms: C_1  and  C_2
REMARK    2  A    between atoms: C_2  and  C_4
REMARK    3  A    between atoms: C_4  and  N_7
REMARK    4  A    between atoms: N_7  and  N_8
REMARK                            x       y       z     vdW  Elec       q    Type
REMARK                         _______ _______ _______ _____ _____    ______ ____
ROOT
ATOM      1  C   UNL     1       3.256  -0.669  -0.962  0.00  0.00    +0.000 C 
ATOM      2  C   UNL     1       2.730  -1.518  -2.104  0.00  0.00    +0.000 C 
ATOM      3  C   UNL     1       3.441  -2.177  -0.964  0.00  0.00    +0.000 C 
ENDROOT
BRANCH   1   5
ATOM      4  C   UNL     1       2.888   0.206   1.404  0.00  0.00    +0.000 C 
ATOM      5  C   UNL     1       2.299  -0.101   0.055  0.00  0.00    +0.000 C 
ATOM      6  O   UNL     1       1.102   0.030  -0.190  0.00  0.00    +0.000 OA
ENDBRANCH   1   5
BRANCH   1   7
ATOM      7  N   UNL     1       4.451   0.189  -1.191  0.00  0.00    +0.000 N 
ATOM      8  H   UNL     1       5.230  -0.379  -1.531  0.00  0.00    +0.000 HD
BRANCH   7   9
ATOM      9  N   UNL     1       4.097   1.127  -2.103  0.00  0.00    +0.000 NA
ATOM     10  C   UNL     1       5.036   1.975  -2.364  0.00  0.00    +0.000 C 
ENDBRANCH   7   9
ENDBRANCH   1   7
TORSDOF 3
