REMARK  Name = ligand_9181693
REMARK  3 active torsions:
REMARK  status: ('A' for Active; 'I' for Inactive)
REMARK    1  A    between atoms: C_1  and  C_2
REMARK    2  A    between atoms: C_2  and  O_3
REMARK    3  A    between atoms: O_3  and  C_4
REMARK                            x       y       z     vdW  Elec       q    Type
REMARK                         _______ _______ _______ _____ _____    ______ ____
ROOT
ATOM      1  C   UNL     1       4.305   1.481  -0.491  0.00  0.00    +0.000 A 
ATOM      2  C   UNL     1       4.996   2.559   0.009  0.00  0.00    +0.000 A 
ATOM      3  N   UNL     1       6.314   2.283  -0.209  0.00  0.00    +0.000 N 
ATOM      4  N   UNL     1       6.529   1.109  -0.822  0.00  0.00    +0.000 NA
ATOM      5  C   UNL     1       5.307   0.608  -0.987  0.00  0.00    +0.000 A 
ATOM      6  N   UNL     1       5.079  -0.574  -1.577  0.00  0.00    +0.000 N 
ATOM      7  H   UNL     1       7.119   2.852   0.028  0.00  0.00    +0.000 HD
ATOM      8  H   UNL     1       5.849  -0.976  -2.096  0.00  0.00    +0.000 HD
ATOM      9  H   UNL     1       4.162  -0.764  -1.963  0.00  0.00    +0.000 HD
ENDROOT
BRANCH   1  10
ATOM     10  O   UNL     1       2.962   1.277  -0.514  0.00  0.00    +0.000 OA
BRANCH  10  12
ATOM     11  C   UNL     1       0.725   2.006  -0.017  0.00  0.00    +0.000 C 
ATOM     12  C   UNL     1       2.202   2.348   0.049  0.00  0.00    +0.000 C 
ENDBRANCH  10  12
ENDBRANCH   1  10
TORSDOF 2
