REMARK  Name = ligand_918192
REMARK  2 active torsions:
REMARK  status: ('A' for Active; 'I' for Inactive)
REMARK    1  A    between atoms: C_1  and  C_2
REMARK    2  A    between atoms: N_7  and  N_8
REMARK                            x       y       z     vdW  Elec       q    Type
REMARK                         _______ _______ _______ _____ _____    ______ ____
ROOT
ATOM      1  C   UNL     1       1.118  -0.110  -0.061  0.00  0.00    +0.000 C 
ATOM      2  C   UNL     1       2.626  -0.181  -0.124  0.00  0.00    +0.000 C 
ATOM      3  C   UNL     1       3.344   0.956  -0.100  0.00  0.00    +0.000 C 
ATOM      4  C   UNL     1       4.826   1.185  -0.132  0.00  0.00    +0.000 C 
ATOM      5  C   UNL     1       5.822   0.041   0.060  0.00  0.00    +0.000 C 
ATOM      6  N   UNL     1       7.101   0.289   0.036  0.00  0.00    +0.000 NA
ATOM      7  N   UNL     1       5.428  -1.257   0.284  0.00  0.00    +0.000 N 
ATOM      8  C   UNL     1       3.153  -1.595  -0.221  0.00  0.00    +0.000 C 
ATOM      9  H   UNL     1       7.258   1.285  -0.153  0.00  0.00    +0.000 HD
ENDROOT
BRANCH   7  10
ATOM     10  N   UNL     1       4.529  -1.750  -0.693  0.00  0.00    +0.000 NA
ATOM     11  H   UNL     1       6.285  -1.810   0.372  0.00  0.00    +0.000 HD
ATOM     12  H   UNL     1       4.692  -2.749  -0.835  0.00  0.00    +0.000 HD
ENDBRANCH   7  10
TORSDOF 1
