REMARK  Name = ligand_91815
REMARK  1 active torsions:
REMARK  status: ('A' for Active; 'I' for Inactive)
REMARK    1  A    between atoms: C_6  and  C_7
REMARK                            x       y       z     vdW  Elec       q    Type
REMARK                         _______ _______ _______ _____ _____    ______ ____
ROOT
ATOM      1  C   UNL     1       2.105   0.260  -0.021  0.00  0.00    +0.000 C 
ATOM      2  C   UNL     1       0.769   0.198  -0.044  0.00  0.00    +0.000 C 
ATOM      3  C   UNL     1       0.023  -1.038  -0.209  0.00  0.00    +0.000 C 
ATOM      4  C   UNL     1      -1.278  -0.704  -0.254  0.00  0.00    +0.000 C 
ATOM      5  C   UNL     1      -1.406   0.732  -0.090  0.00  0.00    +0.000 C 
ATOM      6  C   UNL     1      -0.191   1.291   0.062  0.00  0.00    +0.000 C 
ENDROOT
BRANCH   6   7
ATOM      7  C   UNL     1       0.139   2.662   0.440  0.00  0.00    +0.000 C 
ATOM      8  C   UNL     1      -0.427   3.801  -0.374  0.00  0.00    +0.000 C 
ATOM      9  C   UNL     1       1.048   3.532  -0.386  0.00  0.00    +0.000 C 
ENDBRANCH   6   7
TORSDOF 1
