REMARK  Name = ligand_918159
REMARK  3 active torsions:
REMARK  status: ('A' for Active; 'I' for Inactive)
REMARK    1  A    between atoms: C_1  and  C_2
REMARK    2  A    between atoms: C_4  and  C_5
REMARK    3  A    between atoms: C_5  and  N_6
REMARK                            x       y       z     vdW  Elec       q    Type
REMARK                         _______ _______ _______ _____ _____    ______ ____
ROOT
ATOM      1  C   UNL     1       0.710  -0.154   0.121  0.00  0.00    +0.000 C 
ATOM      2  C   UNL     1       2.233  -0.108   0.041  0.00  0.00    +0.000 C 
ATOM      3  C   UNL     1       2.707   1.225  -0.530  0.00  0.00    +0.000 C 
ATOM      4  C   UNL     1       3.723   1.210  -1.681  0.00  0.00    +0.000 C 
ATOM      5  N   UNL     1       4.196  -0.104  -2.129  0.00  0.00    +0.000 NA
ATOM      6  C   UNL     1       3.661  -1.151  -1.646  0.00  0.00    +0.000 C 
ATOM      7  N   UNL     1       2.677  -1.243  -0.724  0.00  0.00    +0.000 N 
ATOM      8  H   UNL     1       2.527  -2.150  -0.296  0.00  0.00    +0.000 HD
ENDROOT
BRANCH   4   9
ATOM      9  C   UNL     1       4.975   2.057  -1.351  0.00  0.00    +0.000 C 
BRANCH   9  10
ATOM     10  N   UNL     1       4.668   3.462  -1.073  0.00  0.00    +0.000 NA
ATOM     11  H   UNL     1       4.254   3.879  -1.908  0.00  0.00    +0.000 HD
ATOM     12  H   UNL     1       5.544   3.960  -0.917  0.00  0.00    +0.000 HD
ENDBRANCH   9  10
ENDBRANCH   4   9
TORSDOF 2
