REMARK  Name = ligand_9181408
REMARK  4 active torsions:
REMARK  status: ('A' for Active; 'I' for Inactive)
REMARK    1  A    between atoms: C_1  and  C_2
REMARK    2  A    between atoms: C_2  and  O_3
REMARK    3  A    between atoms: C_2  and  C_4
REMARK    4  A    between atoms: C_4  and  C_8
REMARK                            x       y       z     vdW  Elec       q    Type
REMARK                         _______ _______ _______ _____ _____    ______ ____
ROOT
ATOM      1  C   UNL     1       2.910   1.237  -0.787  0.00  0.00    +0.000 C 
ATOM      2  C   UNL     1       4.282   1.814  -0.308  0.00  0.00    +0.000 C 
ATOM      3  N   UNL     1       3.742   3.181  -0.388  0.00  0.00    +0.000 NA
ATOM      4  C   UNL     1       2.363   2.649  -0.395  0.00  0.00    +0.000 C 
ATOM      5  H   UNL     1       3.983   3.661  -1.256  0.00  0.00    +0.000 HD
ENDROOT
BRANCH   1   7
ATOM      6  C   UNL     1       3.321  -1.156  -0.011  0.00  0.00    +0.000 C 
ATOM      7  C   UNL     1       2.377   0.041   0.035  0.00  0.00    +0.000 C 
BRANCH   7   8
ATOM      8  O   UNL     1       2.161   0.390   1.407  0.00  0.00    +0.000 OA
ATOM      9  H   UNL     1       3.018   0.582   1.820  0.00  0.00    +0.000 HD
ENDBRANCH   7   8
ENDBRANCH   1   7
BRANCH   1  10
ATOM     10  C   UNL     1       2.877   0.979  -2.283  0.00  0.00    +0.000 C 
ATOM     11  C   UNL     1       1.723   0.791  -2.936  0.00  0.00    +0.000 C 
ENDBRANCH   1  10
TORSDOF 3
