REMARK  Name = ligand_9182950
REMARK  5 active torsions:
REMARK  status: ('A' for Active; 'I' for Inactive)
REMARK    1  A    between atoms: C_1  and  C_2
REMARK    2  A    between atoms: C_2  and  O_3
REMARK    3  A    between atoms: C_2  and  C_4
REMARK    4  A    between atoms: C_2  and  C_6
REMARK    5  A    between atoms: C_6  and  C_8
REMARK                            x       y       z     vdW  Elec       q    Type
REMARK                         _______ _______ _______ _____ _____    ______ ____
ROOT
ATOM      1  C   UNL     1       1.069  -0.082   0.124  0.00  0.00    +0.000 C 
ATOM      2  C   UNL     1       2.598  -0.016   0.061  0.00  0.00    +0.000 C 
ENDROOT
BRANCH   2   3
ATOM      3  O   UNL     1       3.093  -0.299   1.374  0.00  0.00    +0.000 OA
ATOM      4  H   UNL     1       2.868  -1.224   1.564  0.00  0.00    +0.000 HD
ENDBRANCH   2   3
BRANCH   2   5
ATOM      5  C   UNL     1       3.104  -1.101  -0.876  0.00  0.00    +0.000 C 
ATOM      6  C   UNL     1       3.539  -2.032  -1.679  0.00  0.00    +0.000 C 
ENDBRANCH   2   5
BRANCH   2   7
ATOM      7  C   UNL     1       3.104   1.337  -0.411  0.00  0.00    +0.000 C 
ATOM      8  C   UNL     1       3.896   2.149   0.322  0.00  0.00    +0.000 C 
BRANCH   7   9
ATOM      9  C   UNL     1       2.723   1.854  -1.788  0.00  0.00    +0.000 C 
ATOM     10  N   UNL     1       2.406   2.282  -2.931  0.00  0.00    +0.000 NA
ENDBRANCH   7   9
ENDBRANCH   2   7
TORSDOF 4
