REMARK  Name = ligand_9182612
REMARK  6 active torsions:
REMARK  status: ('A' for Active; 'I' for Inactive)
REMARK    1  A    between atoms: C_1  and  C_2
REMARK    2  A    between atoms: C_2  and  O_3
REMARK    3  A    between atoms: O_3  and  C_4
REMARK    4  A    between atoms: C_4  and  C_5
REMARK    5  A    between atoms: C_5  and  C_6
REMARK    6  A    between atoms: C_6  and  O_7
REMARK                            x       y       z     vdW  Elec       q    Type
REMARK                         _______ _______ _______ _____ _____    ______ ____
ROOT
ATOM      1  C   UNL     1       4.893  -2.136  -1.465  0.00  0.00    +0.000 C 
ATOM      2  C   UNL     1       5.013  -3.593  -1.067  0.00  0.00    +0.000 C 
ATOM      3  N   UNL     1       6.199  -2.740  -1.112  0.00  0.00    +0.000 NA
ATOM      4  H   UNL     1       6.738  -2.968  -1.949  0.00  0.00    +0.000 HD
ENDROOT
BRANCH   1   5
ATOM      5  C   UNL     1       4.307  -1.164  -0.463  0.00  0.00    +0.000 C 
BRANCH   5   6
ATOM      6  O   UNL     1       2.887  -1.106  -0.612  0.00  0.00    +0.000 OA
BRANCH   6   8
ATOM      7  C   UNL     1       0.811  -0.138   0.112  0.00  0.00    +0.000 C 
ATOM      8  C   UNL     1       2.314  -0.177   0.309  0.00  0.00    +0.000 C 
ENDBRANCH   6   8
ENDBRANCH   5   6
ENDBRANCH   1   5
BRANCH   1   9
ATOM      9  C   UNL     1       4.618  -1.783  -2.912  0.00  0.00    +0.000 C 
BRANCH   9  10
ATOM     10  O   UNL     1       5.254  -2.697  -3.807  0.00  0.00    +0.000 OA
ATOM     11  H   UNL     1       6.164  -2.381  -3.928  0.00  0.00    +0.000 HD
ENDBRANCH   9  10
ENDBRANCH   1   9
TORSDOF 5
