REMARK  Name = ligand_9182370
REMARK  3 active torsions:
REMARK  status: ('A' for Active; 'I' for Inactive)
REMARK    1  A    between atoms: C_1  and  C_2
REMARK    2  A    between atoms: C_2  and  O_3
REMARK    3  A    between atoms: C_2  and  C_4
REMARK                            x       y       z     vdW  Elec       q    Type
REMARK                         _______ _______ _______ _____ _____    ______ ____
ROOT
ATOM      1  C   UNL     1       3.023   0.449   1.409  0.00  0.00    +0.000 C 
ATOM      2  O   UNL     1       3.074   1.898   1.451  0.00  0.00    +0.000 OA
ATOM      3  N   UNL     1       4.424   2.329   1.301  0.00  0.00    +0.000 NA
ATOM      4  C   UNL     1       5.170   1.280   1.415  0.00  0.00    +0.000 C 
ATOM      5  C   UNL     1       4.438   0.033   1.597  0.00  0.00    +0.000 C 
ATOM      6  C   UNL     1       4.997  -1.142   1.893  0.00  0.00    +0.000 C 
ENDROOT
BRANCH   1   8
ATOM      7  C   UNL     1       0.996   0.541  -0.123  0.00  0.00    +0.000 C 
ATOM      8  C   UNL     1       2.423   0.032   0.048  0.00  0.00    +0.000 C 
BRANCH   8   9
ATOM      9  O   UNL     1       3.197   0.555  -1.043  0.00  0.00    +0.000 OA
ATOM     10  H   UNL     1       3.401   1.485  -0.812  0.00  0.00    +0.000 HD
ENDBRANCH   8   9
ENDBRANCH   1   8
TORSDOF 2
