REMARK  Name = ligand_9182376
REMARK  4 active torsions:
REMARK  status: ('A' for Active; 'I' for Inactive)
REMARK    1  A    between atoms: C_1  and  C_2
REMARK    2  A    between atoms: C_2  and  O_3
REMARK    3  A    between atoms: C_2  and  C_4
REMARK    4  A    between atoms: C_8  and  N_9
REMARK                            x       y       z     vdW  Elec       q    Type
REMARK                         _______ _______ _______ _____ _____    ______ ____
ROOT
ATOM      1  C   UNL     1       3.117  -0.974  -0.892  0.00  0.00    +0.000 C 
ATOM      2  O   UNL     1       2.037  -1.658  -1.564  0.00  0.00    +0.000 OA
ATOM      3  N   UNL     1       1.806  -2.888  -0.897  0.00  0.00    +0.000 NA
ATOM      4  C   UNL     1       2.848  -3.118  -0.169  0.00  0.00    +0.000 C 
ATOM      5  C   UNL     1       3.925  -2.094  -0.236  0.00  0.00    +0.000 C 
ENDROOT
BRANCH   5   6
ATOM      6  N   UNL     1       4.520  -1.878   1.082  0.00  0.00    +0.000 NA
ATOM      7  H   UNL     1       3.792  -1.533   1.722  0.00  0.00    +0.000 HD
ATOM      8  H   UNL     1       5.208  -1.127   1.032  0.00  0.00    +0.000 HD
ENDBRANCH   5   6
BRANCH   1  10
ATOM      9  C   UNL     1       1.655   1.104  -0.704  0.00  0.00    +0.000 C 
ATOM     10  C   UNL     1       2.516   0.093   0.047  0.00  0.00    +0.000 C 
BRANCH  10  11
ATOM     11  O   UNL     1       1.720  -0.497   1.077  0.00  0.00    +0.000 OA
ATOM     12  H   UNL     1       0.991  -0.973   0.627  0.00  0.00    +0.000 HD
ENDBRANCH  10  11
ENDBRANCH   1  10
TORSDOF 3
