REMARK  Name = ligand_9182215
REMARK  2 active torsions:
REMARK  status: ('A' for Active; 'I' for Inactive)
REMARK    1  A    between atoms: C_1  and  C_2
REMARK    2  A    between atoms: C_2  and  C_4
REMARK                            x       y       z     vdW  Elec       q    Type
REMARK                         _______ _______ _______ _____ _____    ______ ____
ROOT
ATOM      1  C   UNL     1       3.185  -0.922   0.933  0.00  0.00    +0.000 C 
ATOM      2  N   UNL     1       4.628  -0.829   0.683  0.00  0.00    +0.000 N 
ATOM      3  N   UNL     1       5.304  -1.696  -0.111  0.00  0.00    +0.000 NA
ATOM      4  C   UNL     1       4.753  -2.858  -0.281  0.00  0.00    +0.000 C 
ATOM      5  C   UNL     1       3.423  -3.283   0.212  0.00  0.00    +0.000 C 
ATOM      6  C   UNL     1       2.670  -2.322   0.761  0.00  0.00    +0.000 C 
ATOM      7  H   UNL     1       4.962   0.133   0.607  0.00  0.00    +0.000 HD
ENDROOT
BRANCH   1   9
ATOM      8  C   UNL     1       2.613  -0.032  -1.462  0.00  0.00    +0.000 C 
ATOM      9  C   UNL     1       2.420   0.054   0.033  0.00  0.00    +0.000 C 
ATOM     10  O   UNL     1       1.626   0.872   0.511  0.00  0.00    +0.000 OA
ENDBRANCH   1   9
TORSDOF 1
