REMARK  Name = ligand_918335
REMARK  5 active torsions:
REMARK  status: ('A' for Active; 'I' for Inactive)
REMARK    1  A    between atoms: C_1  and  C_2
REMARK    2  A    between atoms: C_3  and  N_7
REMARK    3  A    between atoms: N_5  and  C_6
REMARK    4  A    between atoms: N_7  and  C_8
REMARK    5  A    between atoms: N_7  and  C_9
REMARK                            x       y       z     vdW  Elec       q    Type
REMARK                         _______ _______ _______ _____ _____    ______ ____
ROOT
ATOM      1  C   UNL     1       0.978  -0.024  -0.029  0.00  0.00    +0.000 C 
ATOM      2  C   UNL     1       2.497  -0.104   0.005  0.00  0.00    +0.000 C 
ATOM      3  C   UNL     1       3.140  -1.189   0.919  0.00  0.00    +0.000 C 
ATOM      4  C   UNL     1       4.204  -0.087   1.194  0.00  0.00    +0.000 C 
ATOM      5  N   UNL     1       3.209   0.951   0.795  0.00  0.00    +0.000 NA
ATOM      6  C   UNL     1       2.481   1.424   1.971  0.00  0.00    +0.000 C 
ENDROOT
BRANCH   3   7
ATOM      7  N   UNL     1       3.743  -2.298   0.143  0.00  0.00    +0.000 NA
ATOM      8  C   UNL     1       4.422  -3.201   1.080  0.00  0.00    +0.000 C 
ATOM      9  C   UNL     1       2.696  -3.038  -0.565  0.00  0.00    +0.000 C 
ENDBRANCH   3   7
TORSDOF 1
