REMARK  Name = ligand_9183350
REMARK  7 active torsions:
REMARK  status: ('A' for Active; 'I' for Inactive)
REMARK    1  A    between atoms: C_1  and  C_2
REMARK    2  A    between atoms: C_2  and  O_3
REMARK    3  A    between atoms: C_2  and  C_4
REMARK    4  A    between atoms: C_4  and  C_5
REMARK    5  A    between atoms: C_4  and  C_6
REMARK    6  A    between atoms: C_6  and  C_7
REMARK    7  A    between atoms: N_8  and  O_9
REMARK                            x       y       z     vdW  Elec       q    Type
REMARK                         _______ _______ _______ _____ _____    ______ ____
ROOT
ATOM      1  C   UNL     1       3.129  -1.130  -0.948  0.00  0.00    +0.000 C 
ATOM      2  C   UNL     1       2.669  -1.027  -2.402  0.00  0.00    +0.000 C 
ENDROOT
BRANCH   1   3
ATOM      3  C   UNL     1       4.659  -1.165  -0.910  0.00  0.00    +0.000 C 
ATOM      4  C   UNL     1       5.441   0.056  -1.344  0.00  0.00    +0.000 C 
ATOM      5  N   UNL     1       5.220  -2.275  -0.529  0.00  0.00    +0.000 NA
BRANCH   5   6
ATOM      6  O   UNL     1       6.617  -2.178  -0.561  0.00  0.00    +0.000 OA
ATOM      7  H   UNL     1       6.895  -3.058  -0.246  0.00  0.00    +0.000 HD
ENDBRANCH   5   6
ENDBRANCH   1   3
BRANCH   1   9
ATOM      8  C   UNL     1       1.036  -0.045   0.032  0.00  0.00    +0.000 C 
ATOM      9  C   UNL     1       2.560  -0.021  -0.047  0.00  0.00    +0.000 C 
BRANCH   9  10
ATOM     10  O   UNL     1       3.058  -0.162   1.284  0.00  0.00    +0.000 OA
ATOM     11  H   UNL     1       2.820  -1.049   1.606  0.00  0.00    +0.000 HD
ENDBRANCH   9  10
ENDBRANCH   1   9
TORSDOF 4
