REMARK  Name = ligand_9183316
REMARK  4 active torsions:
REMARK  status: ('A' for Active; 'I' for Inactive)
REMARK    1  A    between atoms: C_1  and  C_2
REMARK    2  A    between atoms: C_2  and  C_4
REMARK    3  A    between atoms: C_4  and  C_5
REMARK    4  A    between atoms: C_4  and  C_7
REMARK                            x       y       z     vdW  Elec       q    Type
REMARK                         _______ _______ _______ _____ _____    ______ ____
ROOT
ATOM      1  C   UNL     1       3.297   0.572   1.136  0.00  0.00    +0.000 C 
ENDROOT
BRANCH   1   2
ATOM      2  C   UNL     1       4.819   0.549   0.971  0.00  0.00    +0.000 C 
ATOM      3  N   UNL     1       5.354  -0.054  -0.126  0.00  0.00    +0.000 N 
ATOM      4  O   UNL     1       5.579   1.081   1.781  0.00  0.00    +0.000 OA
ATOM      5  H   UNL     1       4.776  -0.568  -0.790  0.00  0.00    +0.000 HD
ATOM      6  H   UNL     1       6.360  -0.104  -0.212  0.00  0.00    +0.000 HD
ENDBRANCH   1   2
BRANCH   1   8
ATOM      7  C   UNL     1       0.969   0.022   0.143  0.00  0.00    +0.000 C 
ATOM      8  C   UNL     1       2.470  -0.139   0.068  0.00  0.00    +0.000 C 
ATOM      9  O   UNL     1       2.967  -0.781  -0.862  0.00  0.00    +0.000 OA
ENDBRANCH   1   8
BRANCH   1  10
ATOM     10  C   UNL     1       2.927   0.076   2.484  0.00  0.00    +0.000 C 
ATOM     11  C   UNL     1       2.630  -0.308   3.582  0.00  0.00    +0.000 C 
ENDBRANCH   1  10
TORSDOF 3
