REMARK  Name = ligand_9183144
REMARK  7 active torsions:
REMARK  status: ('A' for Active; 'I' for Inactive)
REMARK    1  A    between atoms: C_1  and  C_2
REMARK    2  A    between atoms: C_2  and  O_3
REMARK    3  A    between atoms: O_3  and  C_4
REMARK    4  A    between atoms: C_4  and  C_5
REMARK    5  A    between atoms: C_6  and  C_7
REMARK    6  A    between atoms: C_6  and  C_8
REMARK    7  A    between atoms: C_8  and  N_9
REMARK                            x       y       z     vdW  Elec       q    Type
REMARK                         _______ _______ _______ _____ _____    ______ ____
ROOT
ATOM      1  C   UNL     1       5.035   1.553  -1.586  0.00  0.00    +0.000 C 
ATOM      2  C   UNL     1       6.363   1.321  -1.537  0.00  0.00    +0.000 C 
ATOM      3  C   UNL     1       7.511   1.967  -2.254  0.00  0.00    +0.000 C 
ENDROOT
BRANCH   1   4
ATOM      4  C   UNL     1       4.121   0.836  -0.636  0.00  0.00    +0.000 C 
BRANCH   4   5
ATOM      5  O   UNL     1       2.889   0.428  -1.238  0.00  0.00    +0.000 OA
BRANCH   5   7
ATOM      6  C   UNL     1       0.802  -0.767  -0.820  0.00  0.00    +0.000 C 
ATOM      7  C   UNL     1       2.164  -0.373  -0.291  0.00  0.00    +0.000 C 
ENDBRANCH   5   7
ENDBRANCH   4   5
ENDBRANCH   1   4
BRANCH   2   8
ATOM      8  C   UNL     1       7.376   3.430  -2.690  0.00  0.00    +0.000 C 
BRANCH   8   9
ATOM      9  N   UNL     1       8.657   3.904  -3.228  0.00  0.00    +0.000 NA
ATOM     10  H   UNL     1       9.390   3.790  -2.530  0.00  0.00    +0.000 HD
ATOM     11  H   UNL     1       8.596   4.900  -3.423  0.00  0.00    +0.000 HD
ENDBRANCH   8   9
ENDBRANCH   2   8
TORSDOF 5
