REMARK  Name = ligand_918563
REMARK  3 active torsions:
REMARK  status: ('A' for Active; 'I' for Inactive)
REMARK    1  A    between atoms: C_1  and  C_2
REMARK    2  A    between atoms: C_2  and  C_7
REMARK    3  A    between atoms: C_4  and  N_5
REMARK                            x       y       z     vdW  Elec       q    Type
REMARK                         _______ _______ _______ _____ _____    ______ ____
ROOT
ATOM      1  C   UNL     1       0.901  -0.018   0.127  0.00  0.00    +0.000 C 
ATOM      2  C   UNL     1       2.417  -0.053  -0.129  0.00  0.00    +0.000 C 
ATOM      3  C   UNL     1       3.141  -1.100   0.785  0.00  0.00    +0.000 C 
ATOM      4  C   UNL     1       4.103  -0.004   1.274  0.00  0.00    +0.000 C 
ATOM      5  C   UNL     1       3.141   1.056   0.717  0.00  0.00    +0.000 C 
ENDROOT
BRANCH   4   6
ATOM      6  N   UNL     1       5.326  -0.011   0.471  0.00  0.00    +0.000 NA
ATOM      7  H   UNL     1       5.186   0.145  -0.525  0.00  0.00    +0.000 HD
ATOM      8  H   UNL     1       5.866  -0.871   0.550  0.00  0.00    +0.000 HD
ENDBRANCH   4   6
BRANCH   2   9
ATOM      9  C   UNL     1       2.703  -0.055  -1.636  0.00  0.00    +0.000 C 
ATOM     10  C   UNL     1       2.218  -1.151  -2.552  0.00  0.00    +0.000 C 
ATOM     11  C   UNL     1       3.689  -0.933  -2.363  0.00  0.00    +0.000 C 
ENDBRANCH   2   9
TORSDOF 2
