REMARK  Name = ligand_9185394
REMARK  7 active torsions:
REMARK  status: ('A' for Active; 'I' for Inactive)
REMARK    1  A    between atoms: C_1  and  C_2
REMARK    2  A    between atoms: C_2  and  O_3
REMARK    3  A    between atoms: C_2  and  C_4
REMARK    4  A    between atoms: C_4  and  O_5
REMARK    5  A    between atoms: O_5  and  C_6
REMARK    6  A    between atoms: C_6  and  C_7
REMARK    7  A    between atoms: C_7  and  C_8
REMARK                            x       y       z     vdW  Elec       q    Type
REMARK                         _______ _______ _______ _____ _____    ______ ____
ROOT
ATOM      1  C   UNL     1       3.067  -1.537   1.041  0.00  0.00    +0.000 C 
ENDROOT
BRANCH   1   3
ATOM      2  C   UNL     1       3.596   0.839   0.271  0.00  0.00    +0.000 C 
ATOM      3  C   UNL     1       2.598  -0.315   0.227  0.00  0.00    +0.000 C 
BRANCH   3   4
ATOM      4  O   UNL     1       2.421  -0.694  -1.140  0.00  0.00    +0.000 OA
ATOM      5  H   UNL     1       3.280  -1.044  -1.439  0.00  0.00    +0.000 HD
ENDBRANCH   3   4
ENDBRANCH   1   3
BRANCH   1   6
ATOM      6  O   UNL     1       4.359  -1.924   0.559  0.00  0.00    +0.000 OA
BRANCH   6   7
ATOM      7  C   UNL     1       5.011  -3.023   1.217  0.00  0.00    +0.000 C 
BRANCH   7   8
ATOM      8  C   UNL     1       5.233  -2.810   2.717  0.00  0.00    +0.000 C 
BRANCH   8   9
ATOM      9  C   UNL     1       4.397  -4.337   0.917  0.00  0.00    +0.000 C 
ATOM     10  N   UNL     1       3.957  -5.390   0.705  0.00  0.00    +0.000 NA
ENDBRANCH   8   9
ENDBRANCH   7   8
ENDBRANCH   6   7
ENDBRANCH   1   6
TORSDOF 6
