REMARK  Name = ligand_9185760
REMARK  3 active torsions:
REMARK  status: ('A' for Active; 'I' for Inactive)
REMARK    1  A    between atoms: C_1  and  C_2
REMARK    2  A    between atoms: C_2  and  O_3
REMARK    3  A    between atoms: O_3  and  N_4
REMARK                            x       y       z     vdW  Elec       q    Type
REMARK                         _______ _______ _______ _____ _____    ______ ____
ROOT
ATOM      1  N   UNL     1       4.535  -0.911  -0.552  0.00  0.00    +0.000 N 
ATOM      2  C   UNL     1       5.243  -2.155  -0.809  0.00  0.00    +0.000 C 
ATOM      3  C   UNL     1       6.660  -1.597  -0.757  0.00  0.00    +0.000 C 
ATOM      4  N   UNL     1       7.745  -2.240  -0.504  0.00  0.00    +0.000 NA
ATOM      5  N   UNL     1       6.658  -0.233  -0.980  0.00  0.00    +0.000 NA
ATOM      6  C   UNL     1       5.404   0.098  -0.880  0.00  0.00    +0.000 C 
ATOM      7  H   UNL     1       7.537  -3.225  -0.322  0.00  0.00    +0.000 HD
ENDROOT
BRANCH   1   8
ATOM      8  O   UNL     1       3.247  -0.813  -1.077  0.00  0.00    +0.000 OA
BRANCH   8  10
ATOM      9  C   UNL     1       0.927  -0.936  -0.419  0.00  0.00    +0.000 C 
ATOM     10  C   UNL     1       2.368  -1.080   0.024  0.00  0.00    +0.000 C 
ENDBRANCH   8  10
ENDBRANCH   1   8
TORSDOF 2
