REMARK  Name = ligand_9185003
REMARK  8 active torsions:
REMARK  status: ('A' for Active; 'I' for Inactive)
REMARK    1  A    between atoms: C_1  and  C_2
REMARK    2  A    between atoms: C_2  and  O_3
REMARK    3  A    between atoms: C_2  and  C_4
REMARK    4  A    between atoms: C_4  and  N_5
REMARK    5  A    between atoms: C_4  and  C_6
REMARK    6  A    between atoms: C_6  and  O_7
REMARK    7  A    between atoms: C_6  and  C_8
REMARK    8  A    between atoms: C_8  and  N_9
REMARK                            x       y       z     vdW  Elec       q    Type
REMARK                         _______ _______ _______ _____ _____    ______ ____
ROOT
ATOM      1  C   UNL     1       3.050   1.167  -0.752  0.00  0.00    +0.000 C 
ENDROOT
BRANCH   1   2
ATOM      2  N   UNL     1       2.571   2.479  -0.260  0.00  0.00    +0.000 NA
ATOM      3  H   UNL     1       2.876   2.600   0.708  0.00  0.00    +0.000 HD
ATOM      4  H   UNL     1       1.552   2.441  -0.190  0.00  0.00    +0.000 HD
ENDBRANCH   1   2
BRANCH   1   6
ATOM      5  C   UNL     1       2.927  -0.044   1.548  0.00  0.00    +0.000 C 
ATOM      6  C   UNL     1       2.465  -0.005   0.100  0.00  0.00    +0.000 C 
BRANCH   6   7
ATOM      7  O   UNL     1       1.030   0.117   0.140  0.00  0.00    +0.000 OA
ATOM      8  H   UNL     1       0.735   0.440  -0.731  0.00  0.00    +0.000 HD
ENDBRANCH   6   7
ENDBRANCH   1   6
BRANCH   1   9
ATOM      9  C   UNL     1       4.590   1.103  -0.873  0.00  0.00    +0.000 C 
BRANCH   9  10
ATOM     10  O   UNL     1       4.973  -0.125  -1.509  0.00  0.00    +0.000 OA
ATOM     11  H   UNL     1       5.839   0.074  -1.924  0.00  0.00    +0.000 HD
ENDBRANCH   9  10
BRANCH   9  12
ATOM     12  C   UNL     1       5.176   2.269  -1.699  0.00  0.00    +0.000 C 
BRANCH  12  13
ATOM     13  N   UNL     1       6.630   2.082  -1.845  0.00  0.00    +0.000 NA
ATOM     14  H   UNL     1       7.064   2.132  -0.925  0.00  0.00    +0.000 HD
ATOM     15  H   UNL     1       7.005   2.888  -2.361  0.00  0.00    +0.000 HD
ENDBRANCH  12  13
ENDBRANCH   9  12
ENDBRANCH   1   9
TORSDOF 7
