REMARK  Name = ligand_9185124
REMARK  5 active torsions:
REMARK  status: ('A' for Active; 'I' for Inactive)
REMARK    1  A    between atoms: C_1  and  C_2
REMARK    2  A    between atoms: C_2  and  O_3
REMARK    3  A    between atoms: C_2  and  C_4
REMARK    4  A    between atoms: N_6  and  C_7
REMARK    5  A    between atoms: C_7  and  C_8
REMARK                            x       y       z     vdW  Elec       q    Type
REMARK                         _______ _______ _______ _____ _____    ______ ____
ROOT
ATOM      1  C   UNL     1       3.107  -0.099   1.506  0.00  0.00    +0.000 C 
ATOM      2  N   UNL     1       2.313  -0.047   2.529  0.00  0.00    +0.000 NA
ATOM      3  N   UNL     1       4.467  -0.157   1.685  0.00  0.00    +0.000 N 
ATOM      4  H   UNL     1       1.329  -0.043   2.250  0.00  0.00    +0.000 HD
ATOM      5  H   UNL     1       5.012  -0.055   0.829  0.00  0.00    +0.000 HD
ENDROOT
BRANCH   1   7
ATOM      6  C   UNL     1       1.316   0.676  -0.172  0.00  0.00    +0.000 C 
ATOM      7  C   UNL     1       2.602  -0.106   0.046  0.00  0.00    +0.000 C 
BRANCH   7   8
ATOM      8  O   UNL     1       3.631   0.475  -0.761  0.00  0.00    +0.000 OA
ATOM      9  H   UNL     1       3.654   1.426  -0.553  0.00  0.00    +0.000 HD
ENDBRANCH   7   8
ENDBRANCH   1   7
BRANCH   3  10
ATOM     10  C   UNL     1       5.069   0.369   2.894  0.00  0.00    +0.000 C 
BRANCH  10  11
ATOM     11  C   UNL     1       6.580   0.213   2.923  0.00  0.00    +0.000 C 
ATOM     12  N   UNL     1       7.834   0.083   2.947  0.00  0.00    +0.000 NA
ENDBRANCH  10  11
ENDBRANCH   3  10
TORSDOF 4
