REMARK  Name = ligand_9186563
REMARK  4 active torsions:
REMARK  status: ('A' for Active; 'I' for Inactive)
REMARK    1  A    between atoms: C_1  and  C_2
REMARK    2  A    between atoms: C_2  and  O_3
REMARK    3  A    between atoms: O_3  and  N_4
REMARK    4  A    between atoms: C_5  and  C_7
REMARK                            x       y       z     vdW  Elec       q    Type
REMARK                         _______ _______ _______ _____ _____    ______ ____
ROOT
ATOM      1  N   UNL     1       4.521   1.227  -0.450  0.00  0.00    +0.000 N 
ATOM      2  C   UNL     1       5.084   2.365  -0.967  0.00  0.00    +0.000 C 
ATOM      3  O   UNL     1       4.496   3.359  -1.369  0.00  0.00    +0.000 OA
ATOM      4  H   UNL     1       5.076   0.376  -0.503  0.00  0.00    +0.000 HD
ENDROOT
BRANCH   2   5
ATOM      5  C   UNL     1       6.576   2.335  -0.966  0.00  0.00    +0.000 C 
ATOM      6  C   UNL     1       7.338   1.824  -2.157  0.00  0.00    +0.000 C 
ATOM      7  N   UNL     1       7.210   0.998  -0.960  0.00  0.00    +0.000 NA
ATOM      8  H   UNL     1       8.074   1.022  -0.413  0.00  0.00    +0.000 HD
ENDBRANCH   2   5
BRANCH   1   9
ATOM      9  O   UNL     1       3.118   1.093  -0.552  0.00  0.00    +0.000 OA
BRANCH   9  11
ATOM     10  C   UNL     1       1.097   0.917   0.739  0.00  0.00    +0.000 C 
ATOM     11  C   UNL     1       2.613   0.938   0.772  0.00  0.00    +0.000 C 
ENDBRANCH   9  11
ENDBRANCH   1   9
TORSDOF 3
