REMARK  Name = ligand_9186451
REMARK  3 active torsions:
REMARK  status: ('A' for Active; 'I' for Inactive)
REMARK    1  A    between atoms: C_1  and  C_2
REMARK    2  A    between atoms: N_6  and  C_7
REMARK    3  A    between atoms: C_7  and  C_8
REMARK                            x       y       z     vdW  Elec       q    Type
REMARK                         _______ _______ _______ _____ _____    ______ ____
ROOT
ATOM      1  C   UNL     1       1.289   0.095  -0.044  0.00  0.00    +0.000 C 
ATOM      2  C   UNL     1       2.787  -0.011   0.042  0.00  0.00    +0.000 C 
ATOM      3  O   UNL     1       3.342  -0.855   0.739  0.00  0.00    +0.000 OA
ATOM      4  N   UNL     1       3.449   0.918  -0.729  0.00  0.00    +0.000 N 
ATOM      5  C   UNL     1       4.804   0.998  -0.790  0.00  0.00    +0.000 C 
ATOM      6  N   UNL     1       5.338   1.895  -1.535  0.00  0.00    +0.000 NA
ATOM      7  H   UNL     1       2.943   1.591  -1.284  0.00  0.00    +0.000 HD
ENDROOT
BRANCH   6   8
ATOM      8  C   UNL     1       6.802   1.835  -1.471  0.00  0.00    +0.000 C 
BRANCH   8   9
ATOM      9  C   UNL     1       7.362   2.911  -2.348  0.00  0.00    +0.000 C 
ATOM     10  C   UNL     1       8.170   3.892  -1.924  0.00  0.00    +0.000 C 
ENDBRANCH   8   9
ENDBRANCH   6   8
TORSDOF 2
