REMARK  Name = ligand_9186611
REMARK  2 active torsions:
REMARK  status: ('A' for Active; 'I' for Inactive)
REMARK    1  A    between atoms: C_1  and  C_2
REMARK    2  A    between atoms: N_4  and  N_5
REMARK                            x       y       z     vdW  Elec       q    Type
REMARK                         _______ _______ _______ _____ _____    ______ ____
ROOT
ATOM      1  C   UNL     1       1.023  -0.219   0.102  0.00  0.00    +0.000 C 
ATOM      2  C   UNL     1       2.510  -0.290  -0.125  0.00  0.00    +0.000 C 
ATOM      3  O   UNL     1       2.992  -0.247  -1.254  0.00  0.00    +0.000 OA
ATOM      4  N   UNL     1       3.217  -0.424   1.066  0.00  0.00    +0.000 N 
ATOM      5  H   UNL     1       2.708  -0.554   1.935  0.00  0.00    +0.000 HD
ENDROOT
BRANCH   4   6
ATOM      6  N   UNL     1       4.629  -0.531   1.136  0.00  0.00    +0.000 NA
ATOM      7  C   UNL     1       5.351   0.639   0.578  0.00  0.00    +0.000 C 
ATOM      8  C   UNL     1       6.260   0.091  -0.468  0.00  0.00    +0.000 C 
ATOM      9  C   UNL     1       6.159  -1.238  -0.529  0.00  0.00    +0.000 C 
ATOM     10  C   UNL     1       5.165  -1.737   0.460  0.00  0.00    +0.000 C 
ENDBRANCH   4   6
TORSDOF 1
