REMARK  Name = ligand_9186896
REMARK  1 active torsions:
REMARK  status: ('A' for Active; 'I' for Inactive)
REMARK    1  A    between atoms: C_1  and  N_2
REMARK                            x       y       z     vdW  Elec       q    Type
REMARK                         _______ _______ _______ _____ _____    ______ ____
ROOT
ATOM      1  C   UNL     1       1.134   0.166  -0.269  0.00  0.00    +0.000 C 
ATOM      2  N   UNL     1       2.489   0.013   0.198  0.00  0.00    +0.000 N 
ATOM      3  C   UNL     1       3.310   1.183   0.320  0.00  0.00    +0.000 C 
ATOM      4  C   UNL     1       3.631   1.757   1.671  0.00  0.00    +0.000 C 
ATOM      5  C   UNL     1       4.700   1.063   0.881  0.00  0.00    +0.000 C 
ATOM      6  N   UNL     1       5.202  -0.277   1.191  0.00  0.00    +0.000 NA
ATOM      7  C   UNL     1       4.165  -1.272   1.520  0.00  0.00    +0.000 C 
ATOM      8  C   UNL     1       2.910  -1.237   0.640  0.00  0.00    +0.000 C 
ATOM      9  O   UNL     1       2.238  -2.257   0.463  0.00  0.00    +0.000 OA
ATOM     10  H   UNL     1       5.880  -0.253   1.951  0.00  0.00    +0.000 HD
ENDROOT
TORSDOF 0
