REMARK  Name = ligand_9186019
REMARK  4 active torsions:
REMARK  status: ('A' for Active; 'I' for Inactive)
REMARK    1  A    between atoms: C_1  and  C_2
REMARK    2  A    between atoms: N_4  and  C_5
REMARK    3  A    between atoms: C_6  and  C_7
REMARK    4  A    between atoms: C_7  and  C_8
REMARK                            x       y       z     vdW  Elec       q    Type
REMARK                         _______ _______ _______ _____ _____    ______ ____
ROOT
ATOM      1  C   UNL     1       1.117   0.056  -0.161  0.00  0.00    +0.000 C 
ATOM      2  C   UNL     1       2.613  -0.069  -0.066  0.00  0.00    +0.000 C 
ATOM      3  O   UNL     1       3.149  -0.967   0.579  0.00  0.00    +0.000 OA
ATOM      4  N   UNL     1       3.291   0.913  -0.767  0.00  0.00    +0.000 N 
ATOM      5  H   UNL     1       2.756   1.608  -1.276  0.00  0.00    +0.000 HD
ENDROOT
BRANCH   4   6
ATOM      6  C   UNL     1       4.659   0.975  -0.811  0.00  0.00    +0.000 C 
ATOM      7  C   UNL     1       5.329   1.913  -1.494  0.00  0.00    +0.000 C 
BRANCH   7   8
ATOM      8  C   UNL     1       6.830   1.942  -1.556  0.00  0.00    +0.000 C 
BRANCH   8   9
ATOM      9  C   UNL     1       7.388   3.227  -1.019  0.00  0.00    +0.000 C 
ATOM     10  C   UNL     1       8.176   4.054  -1.719  0.00  0.00    +0.000 C 
ENDBRANCH   8   9
ENDBRANCH   7   8
ENDBRANCH   4   6
TORSDOF 3
