REMARK  Name = ligand_9186708
REMARK  5 active torsions:
REMARK  status: ('A' for Active; 'I' for Inactive)
REMARK    1  A    between atoms: C_1  and  C_2
REMARK    2  A    between atoms: N_4  and  O_5
REMARK    3  A    between atoms: O_5  and  C_6
REMARK    4  A    between atoms: C_6  and  C_7
REMARK    5  A    between atoms: C_7  and  C_8
REMARK                            x       y       z     vdW  Elec       q    Type
REMARK                         _______ _______ _______ _____ _____    ______ ____
ROOT
ATOM      1  C   UNL     1       1.147  -1.594  -0.684  0.00  0.00    +0.000 C 
ATOM      2  C   UNL     1       2.651  -1.645  -0.751  0.00  0.00    +0.000 C 
ATOM      3  O   UNL     1       3.247  -1.965  -1.772  0.00  0.00    +0.000 OA
ATOM      4  N   UNL     1       3.243  -1.355   0.460  0.00  0.00    +0.000 N 
ATOM      5  H   UNL     1       2.772  -0.816   1.176  0.00  0.00    +0.000 HD
ENDROOT
BRANCH   4   6
ATOM      6  O   UNL     1       4.660  -1.258   0.447  0.00  0.00    +0.000 OA
BRANCH   6   7
ATOM      7  C   UNL     1       5.171  -2.519   0.889  0.00  0.00    +0.000 C 
BRANCH   7   8
ATOM      8  C   UNL     1       6.695  -2.515   0.885  0.00  0.00    +0.000 C 
BRANCH   8   9
ATOM      9  C   UNL     1       7.202  -3.860   1.380  0.00  0.00    +0.000 C 
ATOM     10  C   UNL     1       7.636  -5.014   1.804  0.00  0.00    +0.000 C 
ENDBRANCH   8   9
ENDBRANCH   7   8
ENDBRANCH   6   7
ENDBRANCH   4   6
TORSDOF 4
