REMARK  Name = ligand_9187890
REMARK  1 active torsions:
REMARK  status: ('A' for Active; 'I' for Inactive)
REMARK    1  A    between atoms: C_1  and  N_2
REMARK                            x       y       z     vdW  Elec       q    Type
REMARK                         _______ _______ _______ _____ _____    ______ ____
ROOT
ATOM      1  C   UNL     1       0.984  -0.515  -0.456  0.00  0.00    +0.000 C 
ATOM      2  N   UNL     1       1.679  -1.787  -0.659  0.00  0.00    +0.000 NA
ATOM      3  C   UNL     1       2.125  -1.904  -2.073  0.00  0.00    +0.000 C 
ATOM      4  C   UNL     1       3.495  -1.331  -1.670  0.00  0.00    +0.000 C 
ATOM      5  C   UNL     1       3.117  -1.781  -0.241  0.00  0.00    +0.000 C 
ATOM      6  C   UNL     1       3.581  -3.173   0.231  0.00  0.00    +0.000 C 
ATOM      7  O   UNL     1       4.028  -3.037   1.603  0.00  0.00    +0.000 OA
ATOM      8  C   UNL     1       3.981  -1.680   1.842  0.00  0.00    +0.000 C 
ATOM      9  C   UNL     1       3.497  -0.910   0.874  0.00  0.00    +0.000 C 
ENDROOT
TORSDOF 0
