REMARK  Name = ligand_9187723
REMARK  2 active torsions:
REMARK  status: ('A' for Active; 'I' for Inactive)
REMARK    1  A    between atoms: C_1  and  N_2
REMARK    2  A    between atoms: C_8  and  O_9
REMARK                            x       y       z     vdW  Elec       q    Type
REMARK                         _______ _______ _______ _____ _____    ______ ____
ROOT
ATOM      1  C   UNL     1       1.001   0.211  -0.177  0.00  0.00    +0.000 C 
ATOM      2  N   UNL     1       2.372  -0.106   0.190  0.00  0.00    +0.000 NA
ATOM      3  C   UNL     1       2.761  -1.447  -0.331  0.00  0.00    +0.000 C 
ATOM      4  C   UNL     1       4.152  -0.843  -0.640  0.00  0.00    +0.000 C 
ATOM      5  C   UNL     1       3.357   0.493  -0.763  0.00  0.00    +0.000 C 
ATOM      6  C   UNL     1       4.197   1.525  -0.132  0.00  0.00    +0.000 C 
ATOM      7  C   UNL     1       5.219   0.955   0.523  0.00  0.00    +0.000 C 
ATOM      8  C   UNL     1       5.189  -0.542   0.454  0.00  0.00    +0.000 C 
ENDROOT
BRANCH   8   9
ATOM      9  O   UNL     1       4.770  -1.038   1.718  0.00  0.00    +0.000 OA
ATOM     10  H   UNL     1       3.902  -0.618   1.887  0.00  0.00    +0.000 HD
ENDBRANCH   8   9
TORSDOF 1
