REMARK  Name = ligand_9187559
REMARK  2 active torsions:
REMARK  status: ('A' for Active; 'I' for Inactive)
REMARK    1  A    between atoms: C_1  and  N_2
REMARK    2  A    between atoms: N_8  and  O_9
REMARK                            x       y       z     vdW  Elec       q    Type
REMARK                         _______ _______ _______ _____ _____    ______ ____
ROOT
ATOM      1  C   UNL     1       1.032   0.062   0.217  0.00  0.00    +0.000 C 
ATOM      2  N   UNL     1       2.486   0.047   0.353  0.00  0.00    +0.000 N 
ATOM      3  C   UNL     1       3.187   1.190  -0.247  0.00  0.00    +0.000 C 
ATOM      4  C   UNL     1       4.074   0.573  -1.288  0.00  0.00    +0.000 C 
ATOM      5  C   UNL     1       5.333  -0.177  -0.937  0.00  0.00    +0.000 C 
ATOM      6  C   UNL     1       4.036  -0.921  -1.070  0.00  0.00    +0.000 C 
ATOM      7  C   UNL     1       3.127  -1.155   0.077  0.00  0.00    +0.000 C 
ATOM      8  N   UNL     1       3.074  -2.336   0.584  0.00  0.00    +0.000 NA
ENDROOT
BRANCH   8   9
ATOM      9  O   UNL     1       2.224  -2.359   1.695  0.00  0.00    +0.000 OA
ATOM     10  H   UNL     1       2.453  -3.208   2.114  0.00  0.00    +0.000 HD
ENDBRANCH   8   9
TORSDOF 1
