REMARK  Name = ligand_9187401
REMARK  4 active torsions:
REMARK  status: ('A' for Active; 'I' for Inactive)
REMARK    1  A    between atoms: C_1  and  N_2
REMARK    2  A    between atoms: C_4  and  C_5
REMARK    3  A    between atoms: C_4  and  C_8
REMARK    4  A    between atoms: C_5  and  C_6
REMARK                            x       y       z     vdW  Elec       q    Type
REMARK                         _______ _______ _______ _____ _____    ______ ____
ROOT
ATOM      1  C   UNL     1       1.136  -0.137  -0.080  0.00  0.00    +0.000 C 
ATOM      2  N   UNL     1       2.591  -0.288  -0.108  0.00  0.00    +0.000 NA
ATOM      3  C   UNL     1       3.258   0.507  -1.115  0.00  0.00    +0.000 C 
ATOM      4  C   UNL     1       3.163  -1.012  -1.279  0.00  0.00    +0.000 C 
ENDROOT
BRANCH   4   5
ATOM      5  C   UNL     1       2.194  -1.539  -2.292  0.00  0.00    +0.000 C 
ATOM      6  O   UNL     1       1.630  -2.618  -2.123  0.00  0.00    +0.000 OA
ENDBRANCH   4   5
BRANCH   4   7
ATOM      7  C   UNL     1       4.361  -1.886  -0.961  0.00  0.00    +0.000 C 
BRANCH   7   8
ATOM      8  C   UNL     1       5.552  -1.666  -1.853  0.00  0.00    +0.000 C 
ATOM      9  O   UNL     1       5.481  -1.234  -3.002  0.00  0.00    +0.000 OA
ENDBRANCH   7   8
ENDBRANCH   4   7
TORSDOF 3
