REMARK  Name = ligand_9188655
REMARK  2 active torsions:
REMARK  status: ('A' for Active; 'I' for Inactive)
REMARK    1  A    between atoms: C_1  and  N_2
REMARK    2  A    between atoms: N_8  and  O_9
REMARK                            x       y       z     vdW  Elec       q    Type
REMARK                         _______ _______ _______ _____ _____    ______ ____
ROOT
ATOM      1  C   UNL     1       1.321  -0.119   0.092  0.00  0.00    +0.000 C 
ATOM      2  N   UNL     1       2.764  -0.181  -0.056  0.00  0.00    +0.000 N 
ATOM      3  C   UNL     1       3.339  -1.526  -0.105  0.00  0.00    +0.000 C 
ATOM      4  C   UNL     1       4.688  -1.550  -0.753  0.00  0.00    +0.000 C 
ATOM      5  C   UNL     1       5.309  -0.410  -1.057  0.00  0.00    +0.000 C 
ATOM      6  N   UNL     1       4.744   0.789  -0.745  0.00  0.00    +0.000 N 
ATOM      7  C   UNL     1       3.545   0.968  -0.104  0.00  0.00    +0.000 C 
ATOM      8  N   UNL     1       3.314   2.174   0.343  0.00  0.00    +0.000 NA
ATOM      9  H   UNL     1       5.309   1.622  -0.838  0.00  0.00    +0.000 HD
ENDROOT
BRANCH   8  10
ATOM     10  O   UNL     1       2.138   2.278   1.087  0.00  0.00    +0.000 OA
ATOM     11  H   UNL     1       2.247   3.145   1.517  0.00  0.00    +0.000 HD
ENDBRANCH   8  10
TORSDOF 1
