REMARK  Name = ligand_9188296
REMARK  2 active torsions:
REMARK  status: ('A' for Active; 'I' for Inactive)
REMARK    1  A    between atoms: C_1  and  N_2
REMARK    2  A    between atoms: N_8  and  O_9
REMARK                            x       y       z     vdW  Elec       q    Type
REMARK                         _______ _______ _______ _____ _____    ______ ____
ROOT
ATOM      1  C   UNL     1       1.282  -0.055   0.172  0.00  0.00    +0.000 C 
ATOM      2  N   UNL     1       2.730  -0.044   0.255  0.00  0.00    +0.000 N 
ATOM      3  C   UNL     1       3.425  -1.209  -0.264  0.00  0.00    +0.000 C 
ATOM      4  C   UNL     1       4.746  -0.647  -0.709  0.00  0.00    +0.000 C 
ATOM      5  C   UNL     1       5.860  -1.365  -0.913  0.00  0.00    +0.000 C 
ATOM      6  C   UNL     1       4.687   0.850  -0.783  0.00  0.00    +0.000 C 
ATOM      7  C   UNL     1       3.452   1.124   0.055  0.00  0.00    +0.000 C 
ATOM      8  N   UNL     1       3.247   2.343   0.441  0.00  0.00    +0.000 NA
ENDROOT
BRANCH   8   9
ATOM      9  O   UNL     1       2.128   2.447   1.273  0.00  0.00    +0.000 OA
ATOM     10  H   UNL     1       2.232   3.342   1.645  0.00  0.00    +0.000 HD
ENDBRANCH   8   9
TORSDOF 1
