REMARK  Name = ligand_9188864
REMARK  2 active torsions:
REMARK  status: ('A' for Active; 'I' for Inactive)
REMARK    1  A    between atoms: C_1  and  N_2
REMARK    2  A    between atoms: C_5  and  O_6
REMARK                            x       y       z     vdW  Elec       q    Type
REMARK                         _______ _______ _______ _____ _____    ______ ____
ROOT
ATOM      1  C   UNL     1       0.761   0.225   0.108  0.00  0.00    +0.000 C 
ATOM      2  N   UNL     1       2.180  -0.034   0.117  0.00  0.00    +0.000 N 
ATOM      3  C   UNL     1       3.188   0.896   0.087  0.00  0.00    +0.000 C 
ATOM      4  C   UNL     1       4.388   0.297   0.069  0.00  0.00    +0.000 C 
ATOM      5  C   UNL     1       5.727   0.931   0.032  0.00  0.00    +0.000 C 
ATOM      6  C   UNL     1       4.239  -1.210   0.096  0.00  0.00    +0.000 C 
ATOM      7  C   UNL     1       2.712  -1.305   0.113  0.00  0.00    +0.000 C 
ATOM      8  N   UNL     1       2.075  -2.427   0.119  0.00  0.00    +0.000 NA
ATOM      9  H   UNL     1       2.739  -3.205   0.111  0.00  0.00    +0.000 HD
ENDROOT
BRANCH   5  10
ATOM     10  O   UNL     1       6.419   0.486  -1.124  0.00  0.00    +0.000 OA
ATOM     11  H   UNL     1       5.800   0.553  -1.872  0.00  0.00    +0.000 HD
ENDBRANCH   5  10
TORSDOF 1
