REMARK  Name = ligand_9188347
REMARK  1 active torsions:
REMARK  status: ('A' for Active; 'I' for Inactive)
REMARK    1  A    between atoms: C_1  and  N_2
REMARK                            x       y       z     vdW  Elec       q    Type
REMARK                         _______ _______ _______ _____ _____    ______ ____
ROOT
ATOM      1  C   UNL     1       1.098   0.097   0.224  0.00  0.00    +0.000 C 
ATOM      2  N   UNL     1       2.432   0.268  -0.319  0.00  0.00    +0.000 N 
ATOM      3  C   UNL     1       3.117   1.528  -0.065  0.00  0.00    +0.000 C 
ATOM      4  C   UNL     1       4.230   1.792  -1.073  0.00  0.00    +0.000 C 
ATOM      5  C   UNL     1       5.021   0.556  -1.362  0.00  0.00    +0.000 C 
ATOM      6  C   UNL     1       4.553  -0.680  -1.115  0.00  0.00    +0.000 C 
ATOM      7  C   UNL     1       5.314  -1.922  -1.460  0.00  0.00    +0.000 C 
ATOM      8  C   UNL     1       3.178  -0.885  -0.546  0.00  0.00    +0.000 C 
ATOM      9  O   UNL     1       2.754  -2.017  -0.339  0.00  0.00    +0.000 OA
ENDROOT
TORSDOF 0
