REMARK  Name = ligand_918812
REMARK  3 active torsions:
REMARK  status: ('A' for Active; 'I' for Inactive)
REMARK    1  A    between atoms: C_1  and  C_2
REMARK    2  A    between atoms: C_4  and  N_5
REMARK    3  A    between atoms: C_6  and  C_7
REMARK                            x       y       z     vdW  Elec       q    Type
REMARK                         _______ _______ _______ _____ _____    ______ ____
ROOT
ATOM      1  C   UNL     1       1.447  -0.353  -0.188  0.00  0.00    +0.000 C 
ATOM      2  C   UNL     1       2.806   0.236  -0.118  0.00  0.00    +0.000 C 
ATOM      3  C   UNL     1       3.153   1.479  -0.465  0.00  0.00    +0.000 C 
ATOM      4  C   UNL     1       4.582   1.814  -0.194  0.00  0.00    +0.000 C 
ATOM      5  C   UNL     1       5.143   0.547   0.477  0.00  0.00    +0.000 C 
ATOM      6  C   UNL     1       6.007  -0.502  -0.262  0.00  0.00    +0.000 C 
ATOM      7  C   UNL     1       4.785  -1.420  -0.400  0.00  0.00    +0.000 C 
ATOM      8  C   UNL     1       3.962  -0.470   0.492  0.00  0.00    +0.000 C 
ENDROOT
BRANCH   4   9
ATOM      9  N   UNL     1       5.254   2.179  -1.429  0.00  0.00    +0.000 NA
ATOM     10  H   UNL     1       5.088   1.455  -2.128  0.00  0.00    +0.000 HD
ATOM     11  H   UNL     1       6.259   2.208  -1.275  0.00  0.00    +0.000 HD
ENDBRANCH   4   9
TORSDOF 1
