REMARK  Name = ligand_9189057
REMARK  6 active torsions:
REMARK  status: ('A' for Active; 'I' for Inactive)
REMARK    1  A    between atoms: C_1  and  N_2
REMARK    2  A    between atoms: C_3  and  C_4
REMARK    3  A    between atoms: C_4  and  N_5
REMARK    4  A    between atoms: C_6  and  C_7
REMARK    5  A    between atoms: C_6  and  C_8
REMARK    6  A    between atoms: C_8  and  O_9
REMARK                            x       y       z     vdW  Elec       q    Type
REMARK                         _______ _______ _______ _____ _____    ______ ____
ROOT
ATOM      1  C   UNL     1       1.337  -0.114  -0.015  0.00  0.00    +0.000 C 
ATOM      2  N   UNL     1       2.747   0.137   0.268  0.00  0.00    +0.000 NA
ATOM      3  C   UNL     1       3.470   0.715  -0.878  0.00  0.00    +0.000 C 
ATOM      4  C   UNL     1       3.723  -0.707  -0.421  0.00  0.00    +0.000 C 
ATOM      5  C   UNL     1       3.383  -1.878  -1.294  0.00  0.00    +0.000 C 
ENDROOT
BRANCH   3   6
ATOM      6  C   UNL     1       4.491   1.780  -0.623  0.00  0.00    +0.000 C 
BRANCH   6   7
ATOM      7  N   UNL     1       5.119   2.144  -1.889  0.00  0.00    +0.000 NA
ATOM      8  H   UNL     1       5.660   1.361  -2.248  0.00  0.00    +0.000 HD
ATOM      9  H   UNL     1       5.787   2.895  -1.720  0.00  0.00    +0.000 HD
ENDBRANCH   6   7
ENDBRANCH   3   6
BRANCH   4  10
ATOM     10  C   UNL     1       4.301  -1.962  -2.513  0.00  0.00    +0.000 C 
BRANCH  10  11
ATOM     11  O   UNL     1       5.655  -2.177  -2.131  0.00  0.00    +0.000 OA
ATOM     12  H   UNL     1       5.956  -1.385  -1.655  0.00  0.00    +0.000 HD
ENDBRANCH  10  11
ENDBRANCH   4  10
TORSDOF 4
