REMARK  Name = ligand_9189877
REMARK  2 active torsions:
REMARK  status: ('A' for Active; 'I' for Inactive)
REMARK    1  A    between atoms: C_1  and  N_2
REMARK    2  A    between atoms: C_6  and  N_7
REMARK                            x       y       z     vdW  Elec       q    Type
REMARK                         _______ _______ _______ _____ _____    ______ ____
ROOT
ATOM      1  C   UNL     1       1.166  -0.024   0.265  0.00  0.00    +0.000 C 
ATOM      2  N   UNL     1       2.593   0.041   0.041  0.00  0.00    +0.000 N 
ATOM      3  C   UNL     1       3.397   1.125  -0.023  0.00  0.00    +0.000 C 
ATOM      4  N   UNL     1       3.063   2.346   0.176  0.00  0.00    +0.000 NA
ATOM      5  C   UNL     1       4.748   0.683  -0.366  0.00  0.00    +0.000 C 
ATOM      6  C   UNL     1       4.734  -0.646  -0.450  0.00  0.00    +0.000 C 
ATOM      7  C   UNL     1       3.325  -1.080  -0.204  0.00  0.00    +0.000 C 
ATOM      8  O   UNL     1       2.948  -2.239  -0.265  0.00  0.00    +0.000 OA
ATOM      9  H   UNL     1       2.077   2.429   0.424  0.00  0.00    +0.000 HD
ENDROOT
BRANCH   6  10
ATOM     10  N   UNL     1       5.734  -1.540  -0.741  0.00  0.00    +0.000 N 
ATOM     11  H   UNL     1       6.458  -1.170  -1.348  0.00  0.00    +0.000 HD
ATOM     12  H   UNL     1       5.360  -2.439  -1.050  0.00  0.00    +0.000 HD
ENDBRANCH   6  10
TORSDOF 1
