REMARK  Name = ligand_9189547
REMARK  3 active torsions:
REMARK  status: ('A' for Active; 'I' for Inactive)
REMARK    1  A    between atoms: C_1  and  N_2
REMARK    2  A    between atoms: C_4  and  O_5
REMARK    3  A    between atoms: C_4  and  C_6
REMARK                            x       y       z     vdW  Elec       q    Type
REMARK                         _______ _______ _______ _____ _____    ______ ____
ROOT
ATOM      1  C   UNL     1       1.106  -0.018  -0.182  0.00  0.00    +0.000 C 
ATOM      2  N   UNL     1       2.487   0.017   0.255  0.00  0.00    +0.000 N 
ATOM      3  C   UNL     1       3.288  -1.189   0.058  0.00  0.00    +0.000 C 
ATOM      4  C   UNL     1       4.667  -0.690   0.570  0.00  0.00    +0.000 C 
ATOM      5  C   UNL     1       4.434   0.792   0.352  0.00  0.00    +0.000 C 
ATOM      6  N   UNL     1       3.208   1.157   0.154  0.00  0.00    +0.000 NA
ENDROOT
BRANCH   4   7
ATOM      7  O   UNL     1       4.848  -0.919   1.962  0.00  0.00    +0.000 OA
ATOM      8  H   UNL     1       4.495  -1.801   2.156  0.00  0.00    +0.000 HD
ENDBRANCH   4   7
BRANCH   4   9
ATOM      9  C   UNL     1       5.866  -1.182  -0.189  0.00  0.00    +0.000 C 
ATOM     10  C   UNL     1       7.058  -1.470   0.353  0.00  0.00    +0.000 C 
ENDBRANCH   4   9
TORSDOF 2
