REMARK  Name = ligand_9190011
REMARK  2 active torsions:
REMARK  status: ('A' for Active; 'I' for Inactive)
REMARK    1  A    between atoms: C_1  and  N_2
REMARK    2  A    between atoms: C_7  and  C_8
REMARK                            x       y       z     vdW  Elec       q    Type
REMARK                         _______ _______ _______ _____ _____    ______ ____
ROOT
ATOM      1  C   UNL     1       1.174   0.236   0.069  0.00  0.00    +0.000 C 
ATOM      2  N   UNL     1       2.615   0.215   0.068  0.00  0.00    +0.000 N 
ATOM      3  C   UNL     1       3.389  -0.887   0.068  0.00  0.00    +0.000 A 
ATOM      4  O   UNL     1       3.011  -2.050   0.069  0.00  0.00    +0.000 OA
ATOM      5  O   UNL     1       4.714  -0.505   0.066  0.00  0.00    +0.000 OA
ATOM      6  N   UNL     1       4.718   0.923   0.066  0.00  0.00    +0.000 NA
ATOM      7  C   UNL     1       3.471   1.232   0.067  0.00  0.00    +0.000 A 
ENDROOT
BRANCH   7   8
ATOM      8  C   UNL     1       3.168   2.629   0.067  0.00  0.00    +0.000 C 
ATOM      9  C   UNL     1       2.974   3.815   0.068  0.00  0.00    +0.000 C 
ENDBRANCH   7   8
TORSDOF 1
