REMARK  Name = ligand_9190369
REMARK  3 active torsions:
REMARK  status: ('A' for Active; 'I' for Inactive)
REMARK    1  A    between atoms: C_1  and  N_2
REMARK    2  A    between atoms: C_5  and  C_6
REMARK    3  A    between atoms: C_6  and  N_7
REMARK                            x       y       z     vdW  Elec       q    Type
REMARK                         _______ _______ _______ _____ _____    ______ ____
ROOT
ATOM      1  C   UNL     1       1.102   0.014   0.212  0.00  0.00    +0.000 C 
ATOM      2  N   UNL     1       2.524   0.038  -0.026  0.00  0.00    +0.000 N 
ATOM      3  N   UNL     1       3.217  -1.114  -0.435  0.00  0.00    +0.000 NA
ATOM      4  C   UNL     1       4.592  -0.645  -0.666  0.00  0.00    +0.000 C 
ATOM      5  C   UNL     1       4.489   0.851  -0.963  0.00  0.00    +0.000 C 
ATOM      6  C   UNL     1       3.227   1.219  -0.230  0.00  0.00    +0.000 C 
ATOM      7  O   UNL     1       2.836   2.357  -0.018  0.00  0.00    +0.000 OA
ATOM      8  H   UNL     1       2.826  -1.417  -1.332  0.00  0.00    +0.000 HD
ENDROOT
BRANCH   5   9
ATOM      9  C   UNL     1       4.242   1.183  -2.438  0.00  0.00    +0.000 C 
BRANCH   9  10
ATOM     10  N   UNL     1       5.322   0.734  -3.313  0.00  0.00    +0.000 NA
ATOM     11  H   UNL     1       6.172   1.256  -3.102  0.00  0.00    +0.000 HD
ATOM     12  H   UNL     1       5.083   0.977  -4.278  0.00  0.00    +0.000 HD
ENDBRANCH   9  10
ENDBRANCH   5   9
TORSDOF 2
