REMARK  Name = ligand_9190889
REMARK  3 active torsions:
REMARK  status: ('A' for Active; 'I' for Inactive)
REMARK    1  A    between atoms: C_1  and  N_2
REMARK    2  A    between atoms: N_2  and  C_3
REMARK    3  A    between atoms: C_8  and  N_9
REMARK                            x       y       z     vdW  Elec       q    Type
REMARK                         _______ _______ _______ _____ _____    ______ ____
ROOT
ATOM      1  C   UNL     1       2.704  -1.245   1.219  0.00  0.00    +0.000 C 
ATOM      2  C   UNL     1       3.500  -0.769   2.420  0.00  0.00    +0.000 C 
ATOM      3  C   UNL     1       3.981  -1.939   1.634  0.00  0.00    +0.000 C 
ATOM      4  O   UNL     1       3.656  -3.263   2.121  0.00  0.00    +0.000 OA
ATOM      5  C   UNL     1       2.343  -3.594   1.633  0.00  0.00    +0.000 C 
ATOM      6  C   UNL     1       1.586  -2.256   1.464  0.00  0.00    +0.000 C 
ENDROOT
BRANCH   1   8
ATOM      7  C   UNL     1       2.091   0.889   0.154  0.00  0.00    +0.000 C 
ATOM      8  N   UNL     1       2.698  -0.425  -0.025  0.00  0.00    +0.000 NA
ATOM      9  H   UNL     1       3.655  -0.297  -0.359  0.00  0.00    +0.000 HD
ENDBRANCH   1   8
BRANCH   6  10
ATOM     10  N   UNL     1       0.601  -2.298   0.379  0.00  0.00    +0.000 NA
ATOM     11  H   UNL     1       1.132  -2.300  -0.494  0.00  0.00    +0.000 HD
ATOM     12  H   UNL     1       0.129  -1.393   0.362  0.00  0.00    +0.000 HD
ENDBRANCH   6  10
TORSDOF 2
