REMARK  Name = ligand_91905
REMARK  3 active torsions:
REMARK  status: ('A' for Active; 'I' for Inactive)
REMARK    1  A    between atoms: C_1  and  C_2
REMARK    2  A    between atoms: C_2  and  C_3
REMARK    3  A    between atoms: C_3  and  C_4
REMARK                            x       y       z     vdW  Elec       q    Type
REMARK                         _______ _______ _______ _____ _____    ______ ____
ROOT
ATOM      1  C   UNL     1       1.684   0.077  -0.892  0.00  0.00    +0.000 C 
ATOM      2  C   UNL     1       0.929  -0.001   0.456  0.00  0.00    +0.000 C 
ATOM      3  C   UNL     1      -0.048  -1.194   0.470  0.00  0.00    +0.000 C 
ATOM      4  C   UNL     1      -1.250  -0.738  -0.357  0.00  0.00    +0.000 C 
ATOM      5  C   UNL     1      -1.225   0.789  -0.329  0.00  0.00    +0.000 C 
ATOM      6  C   UNL     1      -0.055   1.172   0.582  0.00  0.00    +0.000 C 
ENDROOT
BRANCH   2   7
ATOM      7  C   UNL     1       1.937  -0.043   1.635  0.00  0.00    +0.000 C 
BRANCH   7   8
ATOM      8  C   UNL     1       2.828  -1.264   1.477  0.00  0.00    +0.000 C 
ATOM      9  C   UNL     1       3.593  -2.311   1.341  0.00  0.00    +0.000 C 
ENDBRANCH   7   8
ENDBRANCH   2   7
TORSDOF 2
