REMARK  Name = ligand_9190000
REMARK  1 active torsions:
REMARK  status: ('A' for Active; 'I' for Inactive)
REMARK    1  A    between atoms: C_1  and  N_2
REMARK                            x       y       z     vdW  Elec       q    Type
REMARK                         _______ _______ _______ _____ _____    ______ ____
ROOT
ATOM      1  C   UNL     1       1.111   0.025  -0.335  0.00  0.00    +0.000 C 
ATOM      2  N   UNL     1       2.449   0.090   0.219  0.00  0.00    +0.000 N 
ATOM      3  C   UNL     1       3.177  -1.085   0.232  0.00  0.00    +0.000 C 
ATOM      4  N   UNL     1       4.204  -1.431   0.935  0.00  0.00    +0.000 NA
ATOM      5  N   UNL     1       4.665  -0.638   1.927  0.00  0.00    +0.000 N 
ATOM      6  C   UNL     1       4.782   0.721   1.897  0.00  0.00    +0.000 C 
ATOM      7  C   UNL     1       4.140   1.623   1.159  0.00  0.00    +0.000 C 
ATOM      8  C   UNL     1       3.022   1.349   0.242  0.00  0.00    +0.000 C 
ATOM      9  O   UNL     1       2.619   2.280  -0.457  0.00  0.00    +0.000 OA
ATOM     10  H   UNL     1       5.377  -1.086   2.505  0.00  0.00    +0.000 HD
ENDROOT
TORSDOF 0
