REMARK  Name = ligand_9191311
REMARK  6 active torsions:
REMARK  status: ('A' for Active; 'I' for Inactive)
REMARK    1  A    between atoms: C_1  and  N_2
REMARK    2  A    between atoms: N_2  and  C_3
REMARK    3  A    between atoms: C_5  and  O_6
REMARK    4  A    between atoms: C_5  and  C_7
REMARK    5  A    between atoms: C_7  and  C_8
REMARK    6  A    between atoms: C_8  and  O_9
REMARK                            x       y       z     vdW  Elec       q    Type
REMARK                         _______ _______ _______ _____ _____    ______ ____
ROOT
ATOM      1  C   UNL     1       2.943  -0.437   1.383  0.00  0.00    +0.000 C 
ATOM      2  C   UNL     1       4.434  -0.381   1.567  0.00  0.00    +0.000 C 
ATOM      3  C   UNL     1       3.735  -1.713   1.615  0.00  0.00    +0.000 C 
ENDROOT
BRANCH   1   5
ATOM      4  C   UNL     1       0.969  -0.187  -0.027  0.00  0.00    +0.000 C 
ATOM      5  N   UNL     1       2.418  -0.077   0.058  0.00  0.00    +0.000 NA
ATOM      6  H   UNL     1       2.691   0.878  -0.181  0.00  0.00    +0.000 HD
ENDBRANCH   1   5
BRANCH   3   7
ATOM      7  O   UNL     1       3.696  -2.287   2.935  0.00  0.00    +0.000 OA
ATOM      8  H   UNL     1       2.976  -1.920   3.474  0.00  0.00    +0.000 HD
ENDBRANCH   3   7
BRANCH   3   9
ATOM      9  C   UNL     1       4.001  -2.708   0.516  0.00  0.00    +0.000 C 
BRANCH   9  10
ATOM     10  C   UNL     1       3.194  -3.992   0.684  0.00  0.00    +0.000 C 
BRANCH  10  11
ATOM     11  O   UNL     1       3.440  -4.886  -0.398  0.00  0.00    +0.000 OA
ATOM     12  H   UNL     1       3.179  -4.427  -1.217  0.00  0.00    +0.000 HD
ENDBRANCH  10  11
ENDBRANCH   9  10
ENDBRANCH   3   9
TORSDOF 5
