REMARK  Name = ligand_9191640
REMARK  3 active torsions:
REMARK  status: ('A' for Active; 'I' for Inactive)
REMARK    1  A    between atoms: C_1  and  N_2
REMARK    2  A    between atoms: N_2  and  C_3
REMARK    3  A    between atoms: C_5  and  C_6
REMARK                            x       y       z     vdW  Elec       q    Type
REMARK                         _______ _______ _______ _____ _____    ______ ____
ROOT
ATOM      1  C   UNL     1       3.064   0.865  -1.042  0.00  0.00    +0.000 A 
ATOM      2  C   UNL     1       2.732   2.106  -1.534  0.00  0.00    +0.000 A 
ATOM      3  C   UNL     1       3.636   2.375  -2.593  0.00  0.00    +0.000 A 
ATOM      4  C   UNL     1       4.470   1.281  -2.660  0.00  0.00    +0.000 A 
ATOM      5  O   UNL     1       4.129   0.363  -1.717  0.00  0.00    +0.000 OA
ENDROOT
BRANCH   1   7
ATOM      6  C   UNL     1       1.150   0.186   0.254  0.00  0.00    +0.000 C 
ATOM      7  N   UNL     1       2.555   0.081  -0.072  0.00  0.00    +0.000 N 
ATOM      8  H   UNL     1       2.920  -0.867  -0.057  0.00  0.00    +0.000 HD
ENDBRANCH   1   7
BRANCH   3   9
ATOM      9  C   UNL     1       3.714   3.513  -3.443  0.00  0.00    +0.000 C 
ATOM     10  C   UNL     1       2.907   4.582  -3.385  0.00  0.00    +0.000 C 
ENDBRANCH   3   9
TORSDOF 2
