REMARK  Name = ligand_9191731
REMARK  3 active torsions:
REMARK  status: ('A' for Active; 'I' for Inactive)
REMARK    1  A    between atoms: C_1  and  N_2
REMARK    2  A    between atoms: N_2  and  C_3
REMARK    3  A    between atoms: C_5  and  C_6
REMARK                            x       y       z     vdW  Elec       q    Type
REMARK                         _______ _______ _______ _____ _____    ______ ____
ROOT
ATOM      1  C   UNL     1       2.937  -0.758  -1.294  0.00  0.00    +0.000 C 
ATOM      2  C   UNL     1       4.441  -0.887  -1.259  0.00  0.00    +0.000 C 
ATOM      3  C   UNL     1       4.831  -2.167  -1.269  0.00  0.00    +0.000 C 
ATOM      4  C   UNL     1       6.201  -2.735  -1.241  0.00  0.00    +0.000 C 
ATOM      5  N   UNL     1       3.738  -2.977  -1.309  0.00  0.00    +0.000 N 
ATOM      6  C   UNL     1       2.555  -2.257  -1.339  0.00  0.00    +0.000 C 
ATOM      7  O   UNL     1       1.438  -2.750  -1.376  0.00  0.00    +0.000 OA
ATOM      8  H   UNL     1       3.752  -3.986  -1.324  0.00  0.00    +0.000 HD
ENDROOT
BRANCH   1  10
ATOM      9  C   UNL     1       1.020   0.089  -0.079  0.00  0.00    +0.000 C 
ATOM     10  N   UNL     1       2.468  -0.075  -0.082  0.00  0.00    +0.000 NA
ATOM     11  H   UNL     1       2.735  -0.634   0.729  0.00  0.00    +0.000 HD
ENDBRANCH   1  10
TORSDOF 1
