REMARK  Name = ligand_9191903
REMARK  2 active torsions:
REMARK  status: ('A' for Active; 'I' for Inactive)
REMARK    1  A    between atoms: C_1  and  N_2
REMARK    2  A    between atoms: N_8  and  C_9
REMARK                            x       y       z     vdW  Elec       q    Type
REMARK                         _______ _______ _______ _____ _____    ______ ____
ROOT
ATOM      1  C   UNL     1       1.134  -0.123  -0.033  0.00  0.00    +0.000 C 
ATOM      2  N   UNL     1       2.581  -0.082  -0.109  0.00  0.00    +0.000 NA
ATOM      3  C   UNL     1       3.159   0.805  -0.832  0.00  0.00    +0.000 C 
ATOM      4  C   UNL     1       4.677   0.874  -0.704  0.00  0.00    +0.000 C 
ATOM      5  C   UNL     1       5.090   2.326  -0.491  0.00  0.00    +0.000 C 
ATOM      6  C   UNL     1       4.381   3.231  -1.494  0.00  0.00    +0.000 C 
ATOM      7  O   UNL     1       2.959   3.060  -1.389  0.00  0.00    +0.000 OA
ATOM      8  N   UNL     1       2.677   1.730  -1.743  0.00  0.00    +0.000 N 
ATOM      9  C   UNL     1       1.570   1.587  -2.651  0.00  0.00    +0.000 C 
ENDROOT
TORSDOF 0
