REMARK  Name = ligand_9192883
REMARK  4 active torsions:
REMARK  status: ('A' for Active; 'I' for Inactive)
REMARK    1  A    between atoms: C_1  and  N_2
REMARK    2  A    between atoms: N_2  and  C_3
REMARK    3  A    between atoms: C_4  and  O_5
REMARK    4  A    between atoms: C_7  and  C_8
REMARK                            x       y       z     vdW  Elec       q    Type
REMARK                         _______ _______ _______ _____ _____    ______ ____
ROOT
ATOM      1  C   UNL     1       3.007  -1.199   0.546  0.00  0.00    +0.000 C 
ATOM      2  C   UNL     1       2.949  -2.385  -0.468  0.00  0.00    +0.000 C 
ATOM      3  C   UNL     1       2.759  -3.298   0.769  0.00  0.00    +0.000 C 
ATOM      4  C   UNL     1       2.142  -2.067   1.504  0.00  0.00    +0.000 C 
ENDROOT
BRANCH   1   6
ATOM      5  C   UNL     1       2.401   1.103   0.850  0.00  0.00    +0.000 C 
ATOM      6  N   UNL     1       2.299  -0.055  -0.031  0.00  0.00    +0.000 NA
ATOM      7  H   UNL     1       2.655   0.208  -0.954  0.00  0.00    +0.000 HD
ENDBRANCH   1   6
BRANCH   2   8
ATOM      8  O   UNL     1       4.123  -2.604  -1.273  0.00  0.00    +0.000 OA
ATOM      9  H   UNL     1       4.875  -2.624  -0.658  0.00  0.00    +0.000 HD
ENDBRANCH   2   8
BRANCH   4  10
ATOM     10  C   UNL     1       0.691  -2.002   1.433  0.00  0.00    +0.000 C 
ATOM     11  N   UNL     1      -0.469  -2.000   1.413  0.00  0.00    +0.000 NA
ENDBRANCH   4  10
TORSDOF 3
