REMARK  Name = ligand_9192616
REMARK  4 active torsions:
REMARK  status: ('A' for Active; 'I' for Inactive)
REMARK    1  A    between atoms: C_1  and  N_2
REMARK    2  A    between atoms: N_2  and  C_3
REMARK    3  A    between atoms: C_3  and  C_4
REMARK    4  A    between atoms: C_4  and  N_5
REMARK                            x       y       z     vdW  Elec       q    Type
REMARK                         _______ _______ _______ _____ _____    ______ ____
ROOT
ATOM      1  C   UNL     1       2.896  -1.005   0.851  0.00  0.00    +0.000 C 
ATOM      2  C   UNL     1       4.357  -1.426   0.523  0.00  0.00    +0.000 C 
ATOM      3  O   UNL     1       4.444  -2.869   0.497  0.00  0.00    +0.000 OA
ATOM      4  C   UNL     1       3.131  -3.277   0.511  0.00  0.00    +0.000 C 
ATOM      5  C   UNL     1       2.221  -2.329   0.690  0.00  0.00    +0.000 C 
ENDROOT
BRANCH   1   7
ATOM      6  C   UNL     1       2.966   1.236  -0.179  0.00  0.00    +0.000 C 
ATOM      7  N   UNL     1       2.294  -0.056  -0.117  0.00  0.00    +0.000 NA
ATOM      8  H   UNL     1       2.334  -0.489  -1.041  0.00  0.00    +0.000 HD
ENDBRANCH   1   7
BRANCH   1   9
ATOM      9  C   UNL     1       2.773  -0.521   2.335  0.00  0.00    +0.000 C 
BRANCH   9  10
ATOM     10  N   UNL     1       1.399  -0.155   2.718  0.00  0.00    +0.000 NA
ATOM     11  H   UNL     1       1.007   0.403   1.956  0.00  0.00    +0.000 HD
ATOM     12  H   UNL     1       1.417   0.430   3.549  0.00  0.00    +0.000 HD
ENDBRANCH   9  10
ENDBRANCH   1   9
TORSDOF 3
