REMARK  Name = ligand_9192753
REMARK  4 active torsions:
REMARK  status: ('A' for Active; 'I' for Inactive)
REMARK    1  A    between atoms: C_1  and  N_2
REMARK    2  A    between atoms: N_2  and  C_3
REMARK    3  A    between atoms: C_6  and  C_7
REMARK    4  A    between atoms: C_6  and  C_8
REMARK                            x       y       z     vdW  Elec       q    Type
REMARK                         _______ _______ _______ _____ _____    ______ ____
ROOT
ATOM      1  C   UNL     1       3.032  -0.616  -1.064  0.00  0.00    +0.000 C 
ATOM      2  C   UNL     1       2.795  -2.136  -1.035  0.00  0.00    +0.000 C 
ATOM      3  O   UNL     1       4.161  -2.362  -1.497  0.00  0.00    +0.000 OA
ATOM      4  C   UNL     1       4.540  -1.036  -0.970  0.00  0.00    +0.000 C 
ATOM      5  C   UNL     1       5.423  -0.308  -1.981  0.00  0.00    +0.000 C 
ENDROOT
BRANCH   1   7
ATOM      6  C   UNL     1       2.668   1.456   0.070  0.00  0.00    +0.000 C 
ATOM      7  N   UNL     1       2.494   0.010   0.159  0.00  0.00    +0.000 NA
ATOM      8  H   UNL     1       1.505  -0.189   0.315  0.00  0.00    +0.000 HD
ENDBRANCH   1   7
BRANCH   4   9
ATOM      9  C   UNL     1       5.180  -1.079   0.391  0.00  0.00    +0.000 C 
ATOM     10  C   UNL     1       5.934  -2.118   0.773  0.00  0.00    +0.000 C 
ENDBRANCH   4   9
TORSDOF 2
