REMARK  Name = ligand_9193616
REMARK  2 active torsions:
REMARK  status: ('A' for Active; 'I' for Inactive)
REMARK    1  A    between atoms: C_1  and  N_2
REMARK    2  A    between atoms: C_6  and  C_8
REMARK                            x       y       z     vdW  Elec       q    Type
REMARK                         _______ _______ _______ _____ _____    ______ ____
ROOT
ATOM      1  C   UNL     1       0.979  -0.067  -0.023  0.00  0.00    +0.000 C 
ATOM      2  N   UNL     1       2.433  -0.065   0.043  0.00  0.00    +0.000 NA
ATOM      3  C   UNL     1       3.050  -0.062  -1.078  0.00  0.00    +0.000 A 
ATOM      4  N   UNL     1       4.389  -0.059  -1.307  0.00  0.00    +0.000 N 
ATOM      5  N   UNL     1       4.703  -0.058  -2.624  0.00  0.00    +0.000 NA
ATOM      6  C   UNL     1       3.525  -0.058  -3.170  0.00  0.00    +0.000 A 
ATOM      7  O   UNL     1       2.463  -0.060  -2.312  0.00  0.00    +0.000 OA
ATOM      8  H   UNL     1       5.067  -0.066  -0.556  0.00  0.00    +0.000 HD
ENDROOT
BRANCH   6   9
ATOM      9  C   UNL     1       3.229  -0.059  -4.602  0.00  0.00    +0.000 C 
ATOM     10  C   UNL     1       1.994  -0.058  -5.118  0.00  0.00    +0.000 C 
ENDBRANCH   6   9
TORSDOF 1
