REMARK  Name = ligand_919330
REMARK  4 active torsions:
REMARK  status: ('A' for Active; 'I' for Inactive)
REMARK    1  A    between atoms: C_1  and  C_2
REMARK    2  A    between atoms: C_2  and  C_3
REMARK    3  A    between atoms: C_3  and  C_4
REMARK    4  A    between atoms: N_7  and  N_8
REMARK                            x       y       z     vdW  Elec       q    Type
REMARK                         _______ _______ _______ _____ _____    ______ ____
ROOT
ATOM      1  C   UNL     1       1.040  -0.265  -0.432  0.00  0.00    +0.000 C 
ATOM      2  C   UNL     1       2.461  -0.099   0.072  0.00  0.00    +0.000 C 
ATOM      3  C   UNL     1       3.453   0.556  -0.868  0.00  0.00    +0.000 C 
ATOM      4  N   UNL     1       3.588  -0.856  -0.542  0.00  0.00    +0.000 N 
ENDROOT
BRANCH   4   5
ATOM      5  N   UNL     1       3.138  -1.579  -1.578  0.00  0.00    +0.000 NA
ATOM      6  C   UNL     1       3.738  -2.723  -1.632  0.00  0.00    +0.000 C 
ENDBRANCH   4   5
BRANCH   2   7
ATOM      7  C   UNL     1       2.623   0.002   1.578  0.00  0.00    +0.000 C 
BRANCH   7   8
ATOM      8  C   UNL     1       1.985   1.251   1.995  0.00  0.00    +0.000 C 
ATOM      9  N   UNL     1       1.472   2.231   2.353  0.00  0.00    +0.000 NA
ENDBRANCH   7   8
ENDBRANCH   2   7
TORSDOF 3
