REMARK  Name = ligand_919426
REMARK  3 active torsions:
REMARK  status: ('A' for Active; 'I' for Inactive)
REMARK    1  A    between atoms: C_1  and  C_2
REMARK    2  A    between atoms: C_3  and  C_4
REMARK    3  A    between atoms: C_4  and  N_5
REMARK                            x       y       z     vdW  Elec       q    Type
REMARK                         _______ _______ _______ _____ _____    ______ ____
ROOT
ATOM      1  C   UNL     1       0.949  -0.281   0.207  0.00  0.00    +0.000 C 
ATOM      2  C   UNL     1       2.444  -0.100   0.144  0.00  0.00    +0.000 C 
ATOM      3  C   UNL     1       3.102   1.079   0.070  0.00  0.00    +0.000 C 
ATOM      4  C   UNL     1       4.617   1.133  -0.015  0.00  0.00    +0.000 C 
ATOM      5  N   UNL     1       5.321  -0.074   0.425  0.00  0.00    +0.000 NA
ATOM      6  C   UNL     1       4.715  -1.294  -0.093  0.00  0.00    +0.000 C 
ATOM      7  C   UNL     1       3.204  -1.409   0.139  0.00  0.00    +0.000 C 
ATOM      8  H   UNL     1       5.285  -0.092   1.445  0.00  0.00    +0.000 HD
ENDROOT
BRANCH   3   9
ATOM      9  C   UNL     1       2.438   2.434  -0.017  0.00  0.00    +0.000 C 
BRANCH   9  10
ATOM     10  N   UNL     1       2.786   3.278   1.120  0.00  0.00    +0.000 NA
ATOM     11  H   UNL     1       2.390   2.869   1.965  0.00  0.00    +0.000 HD
ATOM     12  H   UNL     1       2.339   4.186   1.008  0.00  0.00    +0.000 HD
ENDBRANCH   9  10
ENDBRANCH   3   9
TORSDOF 2
