REMARK  Name = ligand_9194801
REMARK  3 active torsions:
REMARK  status: ('A' for Active; 'I' for Inactive)
REMARK    1  A    between atoms: C_1  and  N_2
REMARK    2  A    between atoms: N_2  and  C_3
REMARK    3  A    between atoms: C_3  and  C_4
REMARK                            x       y       z     vdW  Elec       q    Type
REMARK                         _______ _______ _______ _____ _____    ______ ____
ROOT
ATOM      1  C   UNL     1       4.449  -0.735  -1.152  0.00  0.00    +0.000 C 
ATOM      2  N   UNL     1       5.156   0.333  -1.388  0.00  0.00    +0.000 NA
ATOM      3  O   UNL     1       6.525  -0.026  -1.247  0.00  0.00    +0.000 OA
ATOM      4  C   UNL     1       6.606  -1.332  -0.644  0.00  0.00    +0.000 C 
ATOM      5  C   UNL     1       5.259  -1.916  -0.818  0.00  0.00    +0.000 C 
ATOM      6  C   UNL     1       4.864  -3.187  -0.731  0.00  0.00    +0.000 C 
ENDROOT
BRANCH   1   7
ATOM      7  C   UNL     1       2.938  -0.729  -1.173  0.00  0.00    +0.000 C 
BRANCH   7   9
ATOM      8  C   UNL     1       2.762  -0.098   1.168  0.00  0.00    +0.000 C 
ATOM      9  N   UNL     1       2.386  -1.076   0.149  0.00  0.00    +0.000 NA
ATOM     10  H   UNL     1       1.369  -1.088   0.077  0.00  0.00    +0.000 HD
ENDBRANCH   7   9
ENDBRANCH   1   7
TORSDOF 2
