REMARK  Name = ligand_9194161
REMARK  4 active torsions:
REMARK  status: ('A' for Active; 'I' for Inactive)
REMARK    1  A    between atoms: C_1  and  N_2
REMARK    2  A    between atoms: N_2  and  C_3
REMARK    3  A    between atoms: N_2  and  C_4
REMARK    4  A    between atoms: C_7  and  O_8
REMARK                            x       y       z     vdW  Elec       q    Type
REMARK                         _______ _______ _______ _____ _____    ______ ____
ROOT
ATOM      1  C   UNL     1       3.201   1.144  -0.542  0.00  0.00    +0.000 A 
ATOM      2  C   UNL     1       4.526   1.466  -0.764  0.00  0.00    +0.000 A 
ATOM      3  C   UNL     1       4.564   2.844  -1.094  0.00  0.00    +0.000 A 
ATOM      4  C   UNL     1       3.263   3.272  -1.054  0.00  0.00    +0.000 A 
ATOM      5  O   UNL     1       2.429   2.253  -0.737  0.00  0.00    +0.000 OA
ENDROOT
BRANCH   1   7
ATOM      6  C   UNL     1       1.141   0.006   0.032  0.00  0.00    +0.000 C 
ATOM      7  N   UNL     1       2.582  -0.007  -0.177  0.00  0.00    +0.000 N 
ATOM      8  C   UNL     1       3.359  -1.065   0.445  0.00  0.00    +0.000 C 
ENDBRANCH   1   7
BRANCH   4   9
ATOM      9  O   UNL     1       2.662   4.433  -1.238  0.00  0.00    +0.000 OA
ATOM     10  H   UNL     1       3.363   5.078  -1.423  0.00  0.00    +0.000 HD
ENDBRANCH   4   9
TORSDOF 2
