REMARK  Name = ligand_9194283
REMARK  3 active torsions:
REMARK  status: ('A' for Active; 'I' for Inactive)
REMARK    1  A    between atoms: C_1  and  N_2
REMARK    2  A    between atoms: N_2  and  C_3
REMARK    3  A    between atoms: C_3  and  C_4
REMARK                            x       y       z     vdW  Elec       q    Type
REMARK                         _______ _______ _______ _____ _____    ______ ____
ROOT
ATOM      1  C   UNL     1       4.434  -1.172  -0.704  0.00  0.00    +0.000 C 
ATOM      2  C   UNL     1       4.977  -2.591  -0.484  0.00  0.00    +0.000 C 
ATOM      3  C   UNL     1       5.538  -2.509   0.905  0.00  0.00    +0.000 C 
ATOM      4  O   UNL     1       5.906  -3.459   1.578  0.00  0.00    +0.000 OA
ATOM      5  C   UNL     1       5.648  -1.118   1.363  0.00  0.00    +0.000 C 
ATOM      6  C   UNL     1       5.047  -0.381   0.426  0.00  0.00    +0.000 C 
ENDROOT
BRANCH   1   7
ATOM      7  C   UNL     1       2.890  -1.165  -0.678  0.00  0.00    +0.000 C 
BRANCH   7   9
ATOM      8  C   UNL     1       0.878   0.141  -0.871  0.00  0.00    +0.000 C 
ATOM      9  N   UNL     1       2.336   0.179  -0.877  0.00  0.00    +0.000 NA
ATOM     10  H   UNL     1       2.648   0.789  -0.122  0.00  0.00    +0.000 HD
ENDBRANCH   7   9
ENDBRANCH   1   7
TORSDOF 2
