REMARK  Name = ligand_9194358
REMARK  6 active torsions:
REMARK  status: ('A' for Active; 'I' for Inactive)
REMARK    1  A    between atoms: C_1  and  N_2
REMARK    2  A    between atoms: N_2  and  C_3
REMARK    3  A    between atoms: N_2  and  C_4
REMARK    4  A    between atoms: C_5  and  N_6
REMARK    5  A    between atoms: C_7  and  C_8
REMARK    6  A    between atoms: C_8  and  O_9
REMARK                            x       y       z     vdW  Elec       q    Type
REMARK                         _______ _______ _______ _____ _____    ______ ____
ROOT
ATOM      1  C   UNL     1       2.896  -0.448   1.284  0.00  0.00    +0.000 C 
ATOM      2  C   UNL     1       4.336  -0.896   1.423  0.00  0.00    +0.000 C 
ATOM      3  C   UNL     1       3.238  -1.921   1.372  0.00  0.00    +0.000 C 
ENDROOT
BRANCH   1   5
ATOM      4  C   UNL     1       0.973   0.444   0.090  0.00  0.00    +0.000 C 
ATOM      5  N   UNL     1       2.402   0.131   0.016  0.00  0.00    +0.000 NA
ATOM      6  C   UNL     1       3.152   1.320  -0.393  0.00  0.00    +0.000 C 
ENDBRANCH   1   5
BRANCH   2   7
ATOM      7  N   UNL     1       5.059  -0.665   2.676  0.00  0.00    +0.000 NA
ATOM      8  H   UNL     1       4.445  -0.762   3.485  0.00  0.00    +0.000 HD
ATOM      9  H   UNL     1       5.421   0.285   2.711  0.00  0.00    +0.000 HD
ENDBRANCH   2   7
BRANCH   3  10
ATOM     10  C   UNL     1       3.122  -2.834   0.197  0.00  0.00    +0.000 C 
BRANCH  10  11
ATOM     11  O   UNL     1       4.238  -3.715   0.165  0.00  0.00    +0.000 OA
ATOM     12  H   UNL     1       5.031  -3.160   0.096  0.00  0.00    +0.000 HD
ENDBRANCH  10  11
ENDBRANCH   3  10
TORSDOF 4
