REMARK  Name = ligand_9195100
REMARK  5 active torsions:
REMARK  status: ('A' for Active; 'I' for Inactive)
REMARK    1  A    between atoms: C_1  and  N_2
REMARK    2  A    between atoms: N_2  and  C_3
REMARK    3  A    between atoms: C_3  and  C_4
REMARK    4  A    between atoms: C_4  and  C_5
REMARK    5  A    between atoms: C_5  and  C_8
REMARK                            x       y       z     vdW  Elec       q    Type
REMARK                         _______ _______ _______ _____ _____    ______ ____
ROOT
ATOM      1  C   UNL     1       4.484   1.116  -0.523  0.00  0.00    +0.000 C 
ENDROOT
BRANCH   1   2
ATOM      2  C   UNL     1       5.149   2.074  -1.494  0.00  0.00    +0.000 C 
ATOM      3  C   UNL     1       5.023   1.823  -2.988  0.00  0.00    +0.000 C 
ATOM      4  O   UNL     1       6.184   1.420  -2.262  0.00  0.00    +0.000 OA
BRANCH   2   5
ATOM      5  C   UNL     1       5.357   3.460  -1.033  0.00  0.00    +0.000 C 
ATOM      6  C   UNL     1       4.534   4.501  -1.212  0.00  0.00    +0.000 C 
ENDBRANCH   2   5
ENDBRANCH   1   2
BRANCH   1   7
ATOM      7  C   UNL     1       2.955   1.142  -0.632  0.00  0.00    +0.000 C 
BRANCH   7   9
ATOM      8  C   UNL     1       0.919   0.185   0.242  0.00  0.00    +0.000 C 
ATOM      9  N   UNL     1       2.372   0.203   0.332  0.00  0.00    +0.000 NA
ATOM     10  H   UNL     1       2.731  -0.735   0.154  0.00  0.00    +0.000 HD
ENDBRANCH   7   9
ENDBRANCH   1   7
TORSDOF 4
