REMARK  Name = ligand_919527
REMARK  2 active torsions:
REMARK  status: ('A' for Active; 'I' for Inactive)
REMARK    1  A    between atoms: C_1  and  C_2
REMARK    2  A    between atoms: C_2  and  C_3
REMARK                            x       y       z     vdW  Elec       q    Type
REMARK                         _______ _______ _______ _____ _____    ______ ____
ROOT
ATOM      1  C   UNL     1      -1.305   0.305   1.414  0.00  0.00    +0.000 C 
ATOM      2  C   UNL     1      -0.743  -0.023   0.032  0.00  0.00    +0.000 C 
ATOM      3  C   UNL     1      -1.841  -0.075  -1.020  0.00  0.00    +0.000 C 
ATOM      4  C   UNL     1       0.135  -1.278   0.051  0.00  0.00    +0.000 C 
ATOM      5  N   UNL     1       1.474  -0.734   0.214  0.00  0.00    +0.000 N 
ATOM      6  C   UNL     1       2.546  -1.469   0.639  0.00  0.00    +0.000 C 
ATOM      7  N   UNL     1       3.741  -1.018   0.813  0.00  0.00    +0.000 NA
ATOM      8  N   UNL     1       1.540   0.587  -0.155  0.00  0.00    +0.000 NA
ATOM      9  C   UNL     1       0.319   0.984  -0.310  0.00  0.00    +0.000 C 
ATOM     10  H   UNL     1       3.677  -0.021   0.553  0.00  0.00    +0.000 HD
ENDROOT
TORSDOF 0
