REMARK  Name = ligand_9195516
REMARK  6 active torsions:
REMARK  status: ('A' for Active; 'I' for Inactive)
REMARK    1  A    between atoms: C_1  and  N_2
REMARK    2  A    between atoms: N_2  and  CA_3
REMARK    3  A    between atoms: CA_3  and  CB_4
REMARK    4  A    between atoms: CA_3  and  C_8
REMARK    5  A    between atoms: CB_4  and  CG_5
REMARK    6  A    between atoms: CG_5  and  CD1_6
REMARK                            x       y       z     vdW  Elec       q    Type
REMARK                         _______ _______ _______ _____ _____    ______ ____
ROOT
ATOM      1  CA  LEU A   1       2.888  -1.176   0.064  0.00  0.00    +0.000 C 
ENDROOT
BRANCH   1   3
ATOM      2  C   ACE A   0       1.304   0.671  -0.175  0.00  0.00    +0.000 C 
ATOM      3  N   LEU A   1       2.703   0.257  -0.262  0.00  0.00    +0.000 NA
ATOM      4  H   LEU A   1       3.231   0.802   0.425  0.00  0.00    +0.000 HD
ENDBRANCH   1   3
BRANCH   1   5
ATOM      5  C   LEU A   1       4.387  -1.454   0.111  0.00  0.00    +0.000 C 
ATOM      6  O   LEU A   1       4.978  -1.781   1.138  0.00  0.00    +0.000 OA
ENDBRANCH   1   5
BRANCH   1   7
ATOM      7  CB  LEU A   1       2.206  -2.198  -0.873  0.00  0.00    +0.000 C 
BRANCH   7   8
ATOM      8  CG  LEU A   1       2.694  -2.291  -2.309  0.00  0.00    +0.000 C 
ATOM      9  CD1 LEU A   1       2.512  -1.103  -3.211  0.00  0.00    +0.000 C 
ATOM     10  CD2 LEU A   1       3.223  -3.427  -2.794  0.00  0.00    +0.000 C 
ENDBRANCH   7   8
ENDBRANCH   1   7
TORSDOF 4
