REMARK  Name = ligand_9196795
REMARK  5 active torsions:
REMARK  status: ('A' for Active; 'I' for Inactive)
REMARK    1  A    between atoms: C_1  and  N_2
REMARK    2  A    between atoms: N_2  and  C_3
REMARK    3  A    between atoms: C_3  and  C_4
REMARK    4  A    between atoms: C_4  and  C_5
REMARK    5  A    between atoms: C_5  and  C_7
REMARK                            x       y       z     vdW  Elec       q    Type
REMARK                         _______ _______ _______ _____ _____    ______ ____
ROOT
ATOM      1  C   UNL     1       5.075   1.784   2.193  0.00  0.00    +0.000 C 
ATOM      2  O   UNL     1       4.333   2.396   2.956  0.00  0.00    +0.000 OA
ENDROOT
BRANCH   1   3
ATOM      3  C   UNL     1       6.545   1.876   2.387  0.00  0.00    +0.000 C 
ATOM      4  C   UNL     1       7.196   3.234   2.275  0.00  0.00    +0.000 C 
ATOM      5  N   UNL     1       7.354   2.240   1.219  0.00  0.00    +0.000 NA
ATOM      6  H   UNL     1       8.279   1.810   1.271  0.00  0.00    +0.000 HD
ENDBRANCH   1   3
BRANCH   1   7
ATOM      7  C   UNL     1       4.588   0.875   1.086  0.00  0.00    +0.000 C 
BRANCH   7   8
ATOM      8  C   UNL     1       3.061   0.836   1.066  0.00  0.00    +0.000 C 
BRANCH   8  10
ATOM      9  C   UNL     1       1.109  -0.054  -0.014  0.00  0.00    +0.000 C 
ATOM     10  N   UNL     1       2.569  -0.035  -0.009  0.00  0.00    +0.000 NA
ATOM     11  H   UNL     1       2.896   0.318  -0.908  0.00  0.00    +0.000 HD
ENDBRANCH   8  10
ENDBRANCH   7   8
ENDBRANCH   1   7
TORSDOF 4
