REMARK  Name = ligand_9196569
REMARK  4 active torsions:
REMARK  status: ('A' for Active; 'I' for Inactive)
REMARK    1  A    between atoms: C_1  and  N_2
REMARK    2  A    between atoms: N_2  and  C_3
REMARK    3  A    between atoms: C_3  and  C_7
REMARK    4  A    between atoms: C_4  and  C_5
REMARK                            x       y       z     vdW  Elec       q    Type
REMARK                         _______ _______ _______ _____ _____    ______ ____
ROOT
ATOM      1  C   UNL     1       3.252   0.100   1.251  0.00  0.00    +0.000 C 
ATOM      2  C   UNL     1       2.625   0.297   2.428  0.00  0.00    +0.000 C 
ENDROOT
BRANCH   1   3
ATOM      3  C   UNL     1       4.762   0.164   1.342  0.00  0.00    +0.000 C 
ATOM      4  N   UNL     1       5.400  -0.324   0.236  0.00  0.00    +0.000 N 
ATOM      5  O   UNL     1       5.376   0.601   2.305  0.00  0.00    +0.000 OA
ATOM      6  H   UNL     1       4.900  -0.935  -0.399  0.00  0.00    +0.000 HD
ATOM      7  H   UNL     1       6.407  -0.414   0.291  0.00  0.00    +0.000 HD
ENDBRANCH   1   3
BRANCH   1   9
ATOM      8  C   UNL     1       1.329  -0.096  -0.446  0.00  0.00    +0.000 C 
ATOM      9  N   UNL     1       2.722  -0.140  -0.030  0.00  0.00    +0.000 N 
ATOM     10  H   UNL     1       3.336   0.249  -0.748  0.00  0.00    +0.000 HD
ENDBRANCH   1   9
BRANCH   2  11
ATOM     11  C   UNL     1       1.105   0.297   2.428  0.00  0.00    +0.000 C 
ATOM     12  N   UNL     1      -0.156   0.297   2.428  0.00  0.00    +0.000 NA
ENDBRANCH   2  11
TORSDOF 3
