REMARK  Name = ligand_9197987
REMARK  5 active torsions:
REMARK  status: ('A' for Active; 'I' for Inactive)
REMARK    1  A    between atoms: C_1  and  N_2
REMARK    2  A    between atoms: N_2  and  C_3
REMARK    3  A    between atoms: C_3  and  C_4
REMARK    4  A    between atoms: C_4  and  C_6
REMARK    5  A    between atoms: C_8  and  C_9
REMARK                            x       y       z     vdW  Elec       q    Type
REMARK                         _______ _______ _______ _____ _____    ______ ____
ROOT
ATOM      1  C   UNL     1       4.508  -0.946   1.090  0.00  0.00    +0.000 C 
ATOM      2  O   UNL     1       5.187  -0.107   0.508  0.00  0.00    +0.000 OA
ENDROOT
BRANCH   1   3
ATOM      3  C   UNL     1       5.176  -1.962   1.953  0.00  0.00    +0.000 C 
ATOM      4  N   UNL     1       4.450  -2.360   3.175  0.00  0.00    +0.000 NA
ATOM      5  C   UNL     1       5.688  -1.610   3.331  0.00  0.00    +0.000 C 
ATOM      6  C   UNL     1       5.633  -0.219   3.865  0.00  0.00    +0.000 C 
ATOM      7  H   UNL     1       4.597  -3.353   3.368  0.00  0.00    +0.000 HD
ENDBRANCH   1   3
BRANCH   1   8
ATOM      8  C   UNL     1       2.985  -1.026   1.034  0.00  0.00    +0.000 C 
BRANCH   8  10
ATOM      9  C   UNL     1       1.020  -0.485  -0.237  0.00  0.00    +0.000 C 
ATOM     10  N   UNL     1       2.475  -0.463  -0.227  0.00  0.00    +0.000 NA
ATOM     11  H   UNL     1       2.819   0.496  -0.313  0.00  0.00    +0.000 HD
ENDBRANCH   8  10
ENDBRANCH   1   8
TORSDOF 3
