REMARK  Name = ligand_9197704
REMARK  5 active torsions:
REMARK  status: ('A' for Active; 'I' for Inactive)
REMARK    1  A    between atoms: C_1  and  N_2
REMARK    2  A    between atoms: N_2  and  C_3
REMARK    3  A    between atoms: C_3  and  C_4
REMARK    4  A    between atoms: C_4  and  N_5
REMARK    5  A    between atoms: C_4  and  C_8
REMARK                            x       y       z     vdW  Elec       q    Type
REMARK                         _______ _______ _______ _____ _____    ______ ____
ROOT
ATOM      1  C   UNL     1       4.499   1.073   0.864  0.00  0.00    +0.000 C 
ENDROOT
BRANCH   1   2
ATOM      2  N   UNL     1       4.989   1.362  -0.493  0.00  0.00    +0.000 N 
ATOM      3  C   UNL     1       6.216   0.933  -0.914  0.00  0.00    +0.000 C 
ATOM      4  O   UNL     1       6.978   0.227  -0.269  0.00  0.00    +0.000 OA
ATOM      5  H   UNL     1       4.482   2.025  -1.066  0.00  0.00    +0.000 HD
ENDBRANCH   1   2
BRANCH   1   6
ATOM      6  C   UNL     1       5.006   2.106   1.857  0.00  0.00    +0.000 C 
ATOM      7  N   UNL     1       5.426   2.964   2.680  0.00  0.00    +0.000 NA
ENDBRANCH   1   6
BRANCH   1   8
ATOM      8  C   UNL     1       2.943   1.078   0.882  0.00  0.00    +0.000 C 
BRANCH   8  10
ATOM      9  C   UNL     1       0.902   0.138  -0.029  0.00  0.00    +0.000 C 
ATOM     10  N   UNL     1       2.358   0.112  -0.064  0.00  0.00    +0.000 NA
ATOM     11  H   UNL     1       2.682   0.306  -1.012  0.00  0.00    +0.000 HD
ENDBRANCH   8  10
ENDBRANCH   1   8
TORSDOF 4
