REMARK  Name = ligand_9197951
REMARK  4 active torsions:
REMARK  status: ('A' for Active; 'I' for Inactive)
REMARK    1  A    between atoms: C_1  and  N_2
REMARK    2  A    between atoms: N_2  and  C_3
REMARK    3  A    between atoms: C_3  and  C_4
REMARK    4  A    between atoms: C_4  and  C_6
REMARK                            x       y       z     vdW  Elec       q    Type
REMARK                         _______ _______ _______ _____ _____    ______ ____
ROOT
ATOM      1  C   UNL     1       4.422   0.633   1.234  0.00  0.00    +0.000 C 
ATOM      2  O   UNL     1       5.044   0.267   0.225  0.00  0.00    +0.000 OA
ENDROOT
BRANCH   1   3
ATOM      3  C   UNL     1       5.094   1.183   2.536  0.00  0.00    +0.000 C 
ATOM      4  C   UNL     1       6.638   1.265   2.589  0.00  0.00    +0.000 C 
ATOM      5  C   UNL     1       6.489   0.728   4.018  0.00  0.00    +0.000 C 
ATOM      6  N   UNL     1       5.192   0.144   3.614  0.00  0.00    +0.000 NA
ATOM      7  H   UNL     1       4.467   0.197   4.328  0.00  0.00    +0.000 HD
ENDBRANCH   1   3
BRANCH   1   8
ATOM      8  C   UNL     1       2.895   0.615   1.226  0.00  0.00    +0.000 C 
BRANCH   8  10
ATOM      9  C   UNL     1       2.676   2.293  -0.511  0.00  0.00    +0.000 C 
ATOM     10  N   UNL     1       2.334   1.928   0.864  0.00  0.00    +0.000 NA
ATOM     11  H   UNL     1       1.316   1.863   0.926  0.00  0.00    +0.000 HD
ENDBRANCH   8  10
ENDBRANCH   1   8
TORSDOF 3
