REMARK  Name = ligand_9197185
REMARK  6 active torsions:
REMARK  status: ('A' for Active; 'I' for Inactive)
REMARK    1  A    between atoms: C_1  and  N_2
REMARK    2  A    between atoms: C_3  and  C_4
REMARK    3  A    between atoms: C_4  and  C_5
REMARK    4  A    between atoms: C_5  and  O_6
REMARK    5  A    between atoms: O_6  and  C_7
REMARK    6  A    between atoms: N_8  and  N_9
REMARK                            x       y       z     vdW  Elec       q    Type
REMARK                         _______ _______ _______ _____ _____    ______ ____
ROOT
ATOM      1  C   UNL     1       1.317  -0.214   0.313  0.00  0.00    +0.000 C 
ATOM      2  N   UNL     1       2.679   0.050  -0.056  0.00  0.00    +0.000 N 
ATOM      3  C   UNL     1       3.285   1.273  -0.229  0.00  0.00    +0.000 C 
ATOM      4  N   UNL     1       4.596   1.241  -0.246  0.00  0.00    +0.000 NA
ATOM      5  H   UNL     1       3.350  -0.684   0.152  0.00  0.00    +0.000 HD
ENDROOT
BRANCH   4   6
ATOM      6  N   UNL     1       5.271   2.393  -0.426  0.00  0.00    +0.000 N 
ATOM      7  H   UNL     1       6.264   2.248  -0.250  0.00  0.00    +0.000 HD
ATOM      8  H   UNL     1       4.967   3.138   0.208  0.00  0.00    +0.000 HD
ENDBRANCH   4   6
BRANCH   3   9
ATOM      9  C   UNL     1       2.453   2.539  -0.385  0.00  0.00    +0.000 C 
BRANCH   9  10
ATOM     10  C   UNL     1       2.565   3.107  -1.792  0.00  0.00    +0.000 C 
BRANCH  10  11
ATOM     11  O   UNL     1       1.792   4.311  -1.871  0.00  0.00    +0.000 OA
ATOM     12  C   UNL     1       1.971   4.948  -3.132  0.00  0.00    +0.000 C 
ENDBRANCH  10  11
ENDBRANCH   9  10
ENDBRANCH   3   9
TORSDOF 4
