REMARK  Name = ligand_9197258
REMARK  6 active torsions:
REMARK  status: ('A' for Active; 'I' for Inactive)
REMARK    1  A    between atoms: C_1  and  N_2
REMARK    2  A    between atoms: N_2  and  C_3
REMARK    3  A    between atoms: C_3  and  C_4
REMARK    4  A    between atoms: C_4  and  C_5
REMARK    5  A    between atoms: C_4  and  O_6
REMARK    6  A    between atoms: C_4  and  C_7
REMARK                            x       y       z     vdW  Elec       q    Type
REMARK                         _______ _______ _______ _____ _____    ______ ____
ROOT
ATOM      1  C   UNL     1       4.572  -1.287   0.366  0.00  0.00    +0.000 C 
ATOM      2  C   UNL     1       5.042  -0.993  -1.065  0.00  0.00    +0.000 C 
ENDROOT
BRANCH   1   3
ATOM      3  C   UNL     1       5.055  -2.705   0.756  0.00  0.00    +0.000 C 
ATOM      4  N   UNL     1       5.322  -2.881   2.083  0.00  0.00    +0.000 N 
ATOM      5  O   UNL     1       5.171  -3.637  -0.033  0.00  0.00    +0.000 OA
ATOM      6  H   UNL     1       5.336  -2.075   2.698  0.00  0.00    +0.000 HD
ATOM      7  H   UNL     1       5.665  -3.773   2.405  0.00  0.00    +0.000 HD
ENDBRANCH   1   3
BRANCH   1   8
ATOM      8  O   UNL     1       5.162  -0.282   1.208  0.00  0.00    +0.000 OA
ATOM      9  H   UNL     1       4.905   0.583   0.846  0.00  0.00    +0.000 HD
ENDBRANCH   1   8
BRANCH   1  10
ATOM     10  C   UNL     1       3.016  -1.215   0.426  0.00  0.00    +0.000 C 
BRANCH  10  12
ATOM     11  C   UNL     1       2.646  -0.511   2.753  0.00  0.00    +0.000 C 
ATOM     12  N   UNL     1       2.339  -1.476   1.710  0.00  0.00    +0.000 NA
ATOM     13  H   UNL     1       1.330  -1.476   1.551  0.00  0.00    +0.000 HD
ENDBRANCH  10  12
ENDBRANCH   1  10
TORSDOF 4
