REMARK  Name = ligand_9197625
REMARK  4 active torsions:
REMARK  status: ('A' for Active; 'I' for Inactive)
REMARK    1  A    between atoms: C_1  and  N_2
REMARK    2  A    between atoms: N_2  and  C_3
REMARK    3  A    between atoms: C_3  and  C_4
REMARK    4  A    between atoms: C_6  and  C_8
REMARK                            x       y       z     vdW  Elec       q    Type
REMARK                         _______ _______ _______ _____ _____    ______ ____
ROOT
ATOM      1  C   UNL     1       1.013   0.019  -0.054  0.00  0.00    +0.000 C 
ATOM      2  N   UNL     1       2.467   0.079  -0.118  0.00  0.00    +0.000 N 
ATOM      3  C   UNL     1       3.165   1.255   0.143  0.00  0.00    +0.000 C 
ATOM      4  N   UNL     1       2.608   2.405   0.357  0.00  0.00    +0.000 NA
ATOM      5  H   UNL     1       1.592   2.330   0.324  0.00  0.00    +0.000 HD
ENDROOT
BRANCH   3   6
ATOM      6  C   UNL     1       4.701   1.315   0.179  0.00  0.00    +0.000 C 
ATOM      7  O   UNL     1       5.386   0.332   0.410  0.00  0.00    +0.000 OA
ENDBRANCH   3   6
BRANCH   2   8
ATOM      8  C   UNL     1       3.146  -1.214  -0.314  0.00  0.00    +0.000 C 
BRANCH   8   9
ATOM      9  C   UNL     1       3.407  -1.961   0.984  0.00  0.00    +0.000 C 
ATOM     10  N   UNL     1       3.623  -2.581   2.060  0.00  0.00    +0.000 NA
ENDBRANCH   8   9
ENDBRANCH   2   8
TORSDOF 3
