REMARK  Name = ligand_9197748
REMARK  7 active torsions:
REMARK  status: ('A' for Active; 'I' for Inactive)
REMARK    1  A    between atoms: C_1  and  N_2
REMARK    2  A    between atoms: N_2  and  C_3
REMARK    3  A    between atoms: C_3  and  C_4
REMARK    4  A    between atoms: C_3  and  C_6
REMARK    5  A    between atoms: C_4  and  N_5
REMARK    6  A    between atoms: C_6  and  O_8
REMARK    7  A    between atoms: O_8  and  C_9
REMARK                            x       y       z     vdW  Elec       q    Type
REMARK                         _______ _______ _______ _____ _____    ______ ____
ROOT
ATOM      1  C   UNL     1       3.042  -0.923   0.902  0.00  0.00    +0.000 C 
ENDROOT
BRANCH   1   3
ATOM      2  C   UNL     1       1.089   0.099  -0.189  0.00  0.00    +0.000 C 
ATOM      3  N   UNL     1       2.532  -0.075  -0.219  0.00  0.00    +0.000 NA
ATOM      4  H   UNL     1       2.996   0.835  -0.146  0.00  0.00    +0.000 HD
ENDBRANCH   1   3
BRANCH   1   5
ATOM      5  C   UNL     1       4.577  -0.784   0.987  0.00  0.00    +0.000 C 
ATOM      6  O   UNL     1       5.240   0.035   0.357  0.00  0.00    +0.000 OA
BRANCH   5   7
ATOM      7  O   UNL     1       5.088  -1.600   1.957  0.00  0.00    +0.000 OA
ATOM      8  C   UNL     1       6.508  -1.527   2.082  0.00  0.00    +0.000 C 
ENDBRANCH   5   7
ENDBRANCH   1   5
BRANCH   1   9
ATOM      9  C   UNL     1       2.620  -2.405   0.768  0.00  0.00    +0.000 C 
BRANCH   9  10
ATOM     10  N   UNL     1       2.992  -3.004  -0.518  0.00  0.00    +0.000 NA
ATOM     11  H   UNL     1       2.706  -2.359  -1.258  0.00  0.00    +0.000 HD
ATOM     12  H   UNL     1       2.475  -3.869  -0.659  0.00  0.00    +0.000 HD
ENDBRANCH   9  10
ENDBRANCH   1   9
TORSDOF 5
