REMARK  Name = ligand_9198586
REMARK  7 active torsions:
REMARK  status: ('A' for Active; 'I' for Inactive)
REMARK    1  A    between atoms: C_1  and  N_2
REMARK    2  A    between atoms: N_2  and  C_3
REMARK    3  A    between atoms: C_3  and  C_4
REMARK    4  A    between atoms: C_4  and  O_5
REMARK    5  A    between atoms: C_4  and  C_6
REMARK    6  A    between atoms: C_6  and  O_7
REMARK    7  A    between atoms: O_7  and  N_8
REMARK                            x       y       z     vdW  Elec       q    Type
REMARK                         _______ _______ _______ _____ _____    ______ ____
ROOT
ATOM      1  C   UNL     1       4.474  -0.083   1.329  0.00  0.00    +0.000 C 
ENDROOT
BRANCH   1   2
ATOM      2  O   UNL     1       4.865   1.212   0.826  0.00  0.00    +0.000 OA
ATOM      3  H   UNL     1       4.713   1.863   1.531  0.00  0.00    +0.000 HD
ENDBRANCH   1   2
BRANCH   1   4
ATOM      4  C   UNL     1       2.937  -0.166   1.343  0.00  0.00    +0.000 C 
BRANCH   4   6
ATOM      5  C   UNL     1       0.957   0.003  -0.036  0.00  0.00    +0.000 C 
ATOM      6  N   UNL     1       2.409  -0.001  -0.017  0.00  0.00    +0.000 NA
ATOM      7  H   UNL     1       2.784   0.865  -0.406  0.00  0.00    +0.000 HD
ENDBRANCH   4   6
ENDBRANCH   1   4
BRANCH   1   8
ATOM      8  C   UNL     1       5.039  -0.316   2.736  0.00  0.00    +0.000 C 
BRANCH   8   9
ATOM      9  O   UNL     1       6.468  -0.298   2.678  0.00  0.00    +0.000 OA
BRANCH   9  10
ATOM     10  N   UNL     1       6.970  -0.495   3.973  0.00  0.00    +0.000 NA
ATOM     11  C   UNL     1       8.258  -0.444   3.921  0.00  0.00    +0.000 C 
ENDBRANCH   9  10
ENDBRANCH   8   9
ENDBRANCH   1   8
TORSDOF 6
