REMARK  Name = ligand_9198057
REMARK  5 active torsions:
REMARK  status: ('A' for Active; 'I' for Inactive)
REMARK    1  A    between atoms: C_1  and  N_2
REMARK    2  A    between atoms: N_2  and  CA_3
REMARK    3  A    between atoms: CA_3  and  C_4
REMARK    4  A    between atoms: CA_3  and  C_6
REMARK    5  A    between atoms: C_7  and  C_8
REMARK                            x       y       z     vdW  Elec       q    Type
REMARK                         _______ _______ _______ _____ _____    ______ ____
ROOT
ATOM      1  CA  UNL     1       2.903   0.990  -0.971  0.00  0.00    +0.000 C 
ENDROOT
BRANCH   1   3
ATOM      2  C   UNL     1       2.805  -1.289  -0.090  0.00  0.00    +0.000 C 
ATOM      3  N   UNL     1       2.396   0.099   0.087  0.00  0.00    +0.000 NA
ATOM      4  H   UNL     1       2.730   0.456   0.985  0.00  0.00    +0.000 HD
ENDBRANCH   1   3
BRANCH   1   5
ATOM      5  C   UNL     1       2.408   2.412  -0.726  0.00  0.00    +0.000 C 
ATOM      6  O   UNL     1       2.178   2.903   0.381  0.00  0.00    +0.000 OA
ENDBRANCH   1   5
BRANCH   1   7
ATOM      7  C   UNL     1       4.423   0.990  -0.971  0.00  0.00    +0.000 C 
ATOM      8  C   UNL     1       5.727   0.990  -0.971  0.00  0.00    +0.000 C 
BRANCH   8   9
ATOM      9  C   UNL     1       7.263   0.991  -0.973  0.00  0.00    +0.000 C 
ATOM     10  C   UNL     1       8.463   0.994  -0.955  0.00  0.00    +0.000 C 
ENDBRANCH   8   9
ENDBRANCH   1   7
TORSDOF 4
