REMARK  Name = ligand_9199142
REMARK  5 active torsions:
REMARK  status: ('A' for Active; 'I' for Inactive)
REMARK    1  A    between atoms: C_1  and  N_2
REMARK    2  A    between atoms: C_3  and  C_5
REMARK    3  A    between atoms: C_5  and  C_6
REMARK    4  A    between atoms: C_6  and  C_8
REMARK    5  A    between atoms: C_8  and  O_9
REMARK                            x       y       z     vdW  Elec       q    Type
REMARK                         _______ _______ _______ _____ _____    ______ ____
ROOT
ATOM      1  C   UNL     1       2.879  -2.617   0.416  0.00  0.00    +0.000 C 
ATOM      2  N   UNL     1       2.294  -1.454  -0.206  0.00  0.00    +0.000 N 
ATOM      3  C   UNL     1       2.969  -0.514  -0.938  0.00  0.00    +0.000 C 
ATOM      4  N   UNL     1       2.343   0.499  -1.445  0.00  0.00    +0.000 NA
ATOM      5  H   UNL     1       1.285  -1.398  -0.176  0.00  0.00    +0.000 HD
ATOM      6  H   UNL     1       1.356   0.458  -1.190  0.00  0.00    +0.000 HD
ENDROOT
BRANCH   3   7
ATOM      7  C   UNL     1       4.460  -0.654  -1.223  0.00  0.00    +0.000 C 
BRANCH   7   8
ATOM      8  C   UNL     1       4.613  -1.533  -2.433  0.00  0.00    +0.000 C 
ATOM      9  C   UNL     1       5.030  -1.171  -3.656  0.00  0.00    +0.000 C 
BRANCH   8  10
ATOM     10  C   UNL     1       5.465   0.184  -4.101  0.00  0.00    +0.000 C 
BRANCH  10  11
ATOM     11  O   UNL     1       6.842   0.098  -4.436  0.00  0.00    +0.000 OA
ATOM     12  H   UNL     1       7.273  -0.368  -3.699  0.00  0.00    +0.000 HD
ENDBRANCH  10  11
ENDBRANCH   8  10
ENDBRANCH   7   8
ENDBRANCH   3   7
TORSDOF 4
