REMARK  Name = ligand_9199606
REMARK  6 active torsions:
REMARK  status: ('A' for Active; 'I' for Inactive)
REMARK    1  A    between atoms: C_1  and  N_2
REMARK    2  A    between atoms: C_3  and  C_5
REMARK    3  A    between atoms: C_5  and  O_6
REMARK    4  A    between atoms: O_6  and  C_7
REMARK    5  A    between atoms: C_7  and  C_8
REMARK    6  A    between atoms: C_7  and  C_9
REMARK                            x       y       z     vdW  Elec       q    Type
REMARK                         _______ _______ _______ _____ _____    ______ ____
ROOT
ATOM      1  C   UNL     1       0.949   2.203   0.860  0.00  0.00    +0.000 C 
ATOM      2  N   UNL     1       2.368   1.977   0.831  0.00  0.00    +0.000 N 
ATOM      3  C   UNL     1       3.007   0.781   1.033  0.00  0.00    +0.000 C 
ATOM      4  N   UNL     1       2.410  -0.340   1.263  0.00  0.00    +0.000 NA
ATOM      5  H   UNL     1       2.959   2.806   0.849  0.00  0.00    +0.000 HD
ATOM      6  H   UNL     1       1.400  -0.197   1.268  0.00  0.00    +0.000 HD
ENDROOT
BRANCH   3   7
ATOM      7  C   UNL     1       4.547   0.789   0.990  0.00  0.00    +0.000 C 
BRANCH   7   8
ATOM      8  O   UNL     1       5.156   1.664   1.929  0.00  0.00    +0.000 OA
BRANCH   8   9
ATOM      9  C   UNL     1       4.897   1.350   3.304  0.00  0.00    +0.000 C 
ATOM     10  C   UNL     1       5.378  -0.044   3.699  0.00  0.00    +0.000 C 
ATOM     11  C   UNL     1       5.630   2.402   4.134  0.00  0.00    +0.000 C 
ENDBRANCH   8   9
ENDBRANCH   7   8
ENDBRANCH   3   7
TORSDOF 3
