REMARK  Name = ligand_9200964
REMARK  1 active torsions:
REMARK  status: ('A' for Active; 'I' for Inactive)
REMARK    1  A    between atoms: N_2  and  N_3
REMARK                            x       y       z     vdW  Elec       q    Type
REMARK                         _______ _______ _______ _____ _____    ______ ____
ROOT
ATOM      1  N   UNL     1       3.090  -1.086   0.250  0.00  0.00    +0.000 N 
ATOM      2  C   UNL     1       4.371  -1.133  -0.455  0.00  0.00    +0.000 C 
ATOM      3  C   UNL     1       3.647  -2.402  -0.089  0.00  0.00    +0.000 C 
ATOM      4  C   UNL     1       4.208  -3.269   0.992  0.00  0.00    +0.000 C 
ATOM      5  C   UNL     1       3.795  -4.666   0.554  0.00  0.00    +0.000 C 
ATOM      6  O   UNL     1       3.660  -4.599  -0.874  0.00  0.00    +0.000 OA
ATOM      7  C   UNL     1       3.096  -3.301  -1.152  0.00  0.00    +0.000 C 
ENDROOT
BRANCH   1   9
ATOM      8  C   UNL     1       1.222  -0.035  -0.159  0.00  0.00    +0.000 C 
ATOM      9  N   UNL     1       2.168  -0.749  -0.672  0.00  0.00    +0.000 NA
ENDBRANCH   1   9
TORSDOF 1
