REMARK  Name = ligand_9200978
REMARK  3 active torsions:
REMARK  status: ('A' for Active; 'I' for Inactive)
REMARK    1  A    between atoms: C_1  and  N_2
REMARK    2  A    between atoms: N_2  and  N_3
REMARK    3  A    between atoms: C_6  and  C_8
REMARK                            x       y       z     vdW  Elec       q    Type
REMARK                         _______ _______ _______ _____ _____    ______ ____
ROOT
ATOM      1  C   UNL     1       1.236   0.062   0.067  0.00  0.00    +0.000 C 
ATOM      2  N   UNL     1       2.680   0.127  -0.133  0.00  0.00    +0.000 N 
ATOM      3  C   UNL     1       3.280  -1.076  -0.562  0.00  0.00    +0.000 C 
ATOM      4  O   UNL     1       2.644  -2.084  -0.857  0.00  0.00    +0.000 OA
ENDROOT
BRANCH   2   5
ATOM      5  N   UNL     1       3.419   1.014   0.699  0.00  0.00    +0.000 NA
ATOM      6  C   UNL     1       2.992   2.399   0.456  0.00  0.00    +0.000 C 
ATOM      7  C   UNL     1       4.259   1.884  -0.133  0.00  0.00    +0.000 C 
ENDBRANCH   2   5
BRANCH   3   8
ATOM      8  C   UNL     1       4.719  -1.119  -0.749  0.00  0.00    +0.000 C 
ATOM      9  C   UNL     1       5.902  -1.156  -0.976  0.00  0.00    +0.000 C 
ENDBRANCH   3   8
TORSDOF 2
