REMARK  Name = ligand_9200338
REMARK  5 active torsions:
REMARK  status: ('A' for Active; 'I' for Inactive)
REMARK    1  A    between atoms: C_1  and  N_2
REMARK    2  A    between atoms: C_3  and  C_5
REMARK    3  A    between atoms: C_5  and  C_6
REMARK    4  A    between atoms: C_5  and  C_7
REMARK    5  A    between atoms: C_7  and  C_8
REMARK                            x       y       z     vdW  Elec       q    Type
REMARK                         _______ _______ _______ _____ _____    ______ ____
ROOT
ATOM      1  C   UNL     1       1.042   0.541  -0.356  0.00  0.00    +0.000 C 
ATOM      2  N   UNL     1       2.473   0.374  -0.341  0.00  0.00    +0.000 N 
ATOM      3  C   UNL     1       3.069  -0.592  -1.125  0.00  0.00    +0.000 C 
ATOM      4  O   UNL     1       2.426  -1.425  -1.754  0.00  0.00    +0.000 OA
ATOM      5  H   UNL     1       3.045   1.104   0.064  0.00  0.00    +0.000 HD
ENDROOT
BRANCH   3   6
ATOM      6  C   UNL     1       4.593  -0.560  -1.094  0.00  0.00    +0.000 C 
ATOM      7  C   UNL     1       5.073  -1.388   0.098  0.00  0.00    +0.000 C 
BRANCH   6   8
ATOM      8  C   UNL     1       5.193  -1.099  -2.404  0.00  0.00    +0.000 C 
BRANCH   8   9
ATOM      9  C   UNL     1       4.848  -0.242  -3.594  0.00  0.00    +0.000 C 
ATOM     10  C   UNL     1       5.745   0.400  -4.353  0.00  0.00    +0.000 C 
ENDBRANCH   8   9
ENDBRANCH   6   8
ENDBRANCH   3   6
TORSDOF 3
