REMARK  Name = ligand_9200026
REMARK  4 active torsions:
REMARK  status: ('A' for Active; 'I' for Inactive)
REMARK    1  A    between atoms: C_1  and  N_2
REMARK    2  A    between atoms: C_3  and  C_6
REMARK    3  A    between atoms: N_4  and  O_5
REMARK    4  A    between atoms: C_6  and  C_8
REMARK                            x       y       z     vdW  Elec       q    Type
REMARK                         _______ _______ _______ _____ _____    ______ ____
ROOT
ATOM      1  C   UNL     1       0.952   0.111   0.189  0.00  0.00    +0.000 C 
ATOM      2  N   UNL     1       2.381   0.069  -0.028  0.00  0.00    +0.000 NA
ATOM      3  C   UNL     1       2.919  -0.672  -0.931  0.00  0.00    +0.000 C 
ATOM      4  N   UNL     1       2.357  -1.547  -1.864  0.00  0.00    +0.000 N 
ATOM      5  H   UNL     1       3.019  -1.785  -2.612  0.00  0.00    +0.000 HD
ENDROOT
BRANCH   4   6
ATOM      6  O   UNL     1       1.107  -1.168  -2.360  0.00  0.00    +0.000 OA
ATOM      7  H   UNL     1       0.487  -1.564  -1.717  0.00  0.00    +0.000 HD
ENDBRANCH   4   6
BRANCH   3   8
ATOM      8  C   UNL     1       4.462  -0.607  -0.976  0.00  0.00    +0.000 C 
ATOM      9  O   UNL     1       5.037  -1.168  -1.904  0.00  0.00    +0.000 OA
BRANCH   8  10
ATOM     10  C   UNL     1       5.223   0.070   0.054  0.00  0.00    +0.000 C 
ATOM     11  C   UNL     1       5.815   0.644   0.928  0.00  0.00    +0.000 C 
ENDBRANCH   8  10
ENDBRANCH   3   8
TORSDOF 3
