REMARK  Name = ligand_9200105
REMARK  4 active torsions:
REMARK  status: ('A' for Active; 'I' for Inactive)
REMARK    1  A    between atoms: C_1  and  N_2
REMARK    2  A    between atoms: N_2  and  C_5
REMARK    3  A    between atoms: C_5  and  C_6
REMARK    4  A    between atoms: C_8  and  O_9
REMARK                            x       y       z     vdW  Elec       q    Type
REMARK                         _______ _______ _______ _____ _____    ______ ____
ROOT
ATOM      1  C   UNL     1       3.398  -0.252   0.563  0.00  0.00    +0.000 C 
ATOM      2  C   UNL     1       3.310  -0.572   2.073  0.00  0.00    +0.000 C 
ATOM      3  C   UNL     1       4.391  -1.658   1.744  0.00  0.00    +0.000 C 
ATOM      4  C   UNL     1       3.656  -1.782   0.385  0.00  0.00    +0.000 C 
ENDROOT
BRANCH   1   6
ATOM      5  C   UNL     1       0.885  -0.039   0.089  0.00  0.00    +0.000 C 
ATOM      6  N   UNL     1       2.265   0.271  -0.229  0.00  0.00    +0.000 N 
ATOM      7  C   UNL     1       2.550   0.887  -1.437  0.00  0.00    +0.000 C 
ATOM      8  O   UNL     1       1.732   1.250  -2.274  0.00  0.00    +0.000 OA
ENDBRANCH   1   6
BRANCH   4   9
ATOM      9  O   UNL     1       4.403  -2.153  -0.782  0.00  0.00    +0.000 OA
ATOM     10  H   UNL     1       3.740  -2.143  -1.499  0.00  0.00    +0.000 HD
ENDBRANCH   4   9
TORSDOF 2
