REMARK  Name = ligand_9201840
REMARK  4 active torsions:
REMARK  status: ('A' for Active; 'I' for Inactive)
REMARK    1  A    between atoms: C_1  and  N_2
REMARK    2  A    between atoms: N_2  and  N_3
REMARK    3  A    between atoms: C_4  and  C_5
REMARK    4  A    between atoms: C_6  and  C_7
REMARK                            x       y       z     vdW  Elec       q    Type
REMARK                         _______ _______ _______ _____ _____    ______ ____
ROOT
ATOM      1  N   UNL     1       3.210  -1.111   0.796  0.00  0.00    +0.000 NA
ATOM      2  C   UNL     1       4.491  -1.111   0.654  0.00  0.00    +0.000 C 
ENDROOT
BRANCH   1   4
ATOM      3  C   UNL     1       1.147  -0.026   0.262  0.00  0.00    +0.000 C 
ATOM      4  N   UNL     1       2.601  -0.066   0.173  0.00  0.00    +0.000 N 
ATOM      5  H   UNL     1       2.876   0.019  -0.809  0.00  0.00    +0.000 HD
ENDBRANCH   1   4
BRANCH   2   6
ATOM      6  C   UNL     1       5.153  -2.187   1.337  0.00  0.00    +0.000 C 
ATOM      7  C   UNL     1       5.774  -3.030   1.926  0.00  0.00    +0.000 C 
BRANCH   7   8
ATOM      8  C   UNL     1       6.545  -3.979   2.669  0.00  0.00    +0.000 C 
ATOM      9  C   UNL     1       7.836  -4.502   2.098  0.00  0.00    +0.000 C 
ATOM     10  O   UNL     1       6.628  -5.272   2.057  0.00  0.00    +0.000 OA
ENDBRANCH   7   8
ENDBRANCH   2   6
TORSDOF 3
