REMARK  Name = ligand_9202980
REMARK  4 active torsions:
REMARK  status: ('A' for Active; 'I' for Inactive)
REMARK    1  A    between atoms: C_1  and  N_2
REMARK    2  A    between atoms: N_2  and  O_3
REMARK    3  A    between atoms: O_3  and  C_4
REMARK    4  A    between atoms: C_6  and  N_7
REMARK                            x       y       z     vdW  Elec       q    Type
REMARK                         _______ _______ _______ _____ _____    ______ ____
ROOT
ATOM      1  O   UNL     1       2.957  -0.937   0.143  0.00  0.00    +0.000 OA
ENDROOT
BRANCH   1   3
ATOM      2  C   UNL     1       2.107   1.056  -0.808  0.00  0.00    +0.000 C 
ATOM      3  N   UNL     1       2.685   0.419   0.362  0.00  0.00    +0.000 N 
ATOM      4  C   UNL     1       3.677   1.048   1.072  0.00  0.00    +0.000 C 
ATOM      5  N   UNL     1       4.599   0.501   1.788  0.00  0.00    +0.000 NA
ATOM      6  H   UNL     1       4.473  -0.515   1.706  0.00  0.00    +0.000 HD
ENDBRANCH   1   3
BRANCH   1   7
ATOM      7  C   UNL     1       2.114  -1.707   1.034  0.00  0.00    +0.000 C 
ATOM      8  C   UNL     1       2.363  -3.191   1.007  0.00  0.00    +0.000 C 
ATOM      9  C   UNL     1       1.112  -2.637   0.394  0.00  0.00    +0.000 C 
BRANCH   9  10
ATOM     10  N   UNL     1       0.955  -2.697  -1.063  0.00  0.00    +0.000 NA
ATOM     11  H   UNL     1       1.807  -2.361  -1.517  0.00  0.00    +0.000 HD
ATOM     12  H   UNL     1       0.216  -2.065  -1.367  0.00  0.00    +0.000 HD
ENDBRANCH   9  10
ENDBRANCH   1   7
TORSDOF 3
