REMARK  Name = ligand_9202301
REMARK  6 active torsions:
REMARK  status: ('A' for Active; 'I' for Inactive)
REMARK    1  A    between atoms: C_1  and  N_2
REMARK    2  A    between atoms: N_2  and  N_3
REMARK    3  A    between atoms: C_4  and  C_5
REMARK    4  A    between atoms: C_4  and  C_7
REMARK    5  A    between atoms: C_5  and  O_6
REMARK    6  A    between atoms: C_8  and  C_9
REMARK                            x       y       z     vdW  Elec       q    Type
REMARK                         _______ _______ _______ _____ _____    ______ ____
ROOT
ATOM      1  N   UNL     1       3.183  -1.053   0.761  0.00  0.00    +0.000 NA
ATOM      2  C   UNL     1       4.487  -0.995   0.765  0.00  0.00    +0.000 C 
ENDROOT
BRANCH   1   4
ATOM      3  C   UNL     1       1.257  -0.685  -0.574  0.00  0.00    +0.000 C 
ATOM      4  N   UNL     1       2.546  -0.200  -0.078  0.00  0.00    +0.000 N 
ATOM      5  H   UNL     1       2.359   0.680   0.410  0.00  0.00    +0.000 HD
ENDBRANCH   1   4
BRANCH   2   6
ATOM      6  C   UNL     1       5.265  -1.907   1.664  0.00  0.00    +0.000 C 
ATOM      7  C   UNL     1       4.773  -2.316   2.843  0.00  0.00    +0.000 C 
ATOM      8  C   UNL     1       5.515  -3.208   3.785  0.00  0.00    +0.000 C 
ENDBRANCH   2   6
BRANCH   2   9
ATOM      9  C   UNL     1       5.310  -0.044  -0.129  0.00  0.00    +0.000 C 
BRANCH   9  10
ATOM     10  O   UNL     1       6.719  -0.129   0.010  0.00  0.00    +0.000 OA
ATOM     11  H   UNL     1       6.931   0.117   0.927  0.00  0.00    +0.000 HD
ENDBRANCH   9  10
ENDBRANCH   2   9
TORSDOF 4
