REMARK  Name = ligand_9202691
REMARK  3 active torsions:
REMARK  status: ('A' for Active; 'I' for Inactive)
REMARK    1  A    between atoms: N_2  and  N_3
REMARK    2  A    between atoms: N_3  and  C_6
REMARK    3  A    between atoms: C_7  and  C_8
REMARK                            x       y       z     vdW  Elec       q    Type
REMARK                         _______ _______ _______ _____ _____    ______ ____
ROOT
ATOM      1  N   UNL     1       2.931   0.994   0.816  0.00  0.00    +0.000 N 
ATOM      2  C   UNL     1       2.194   1.878   1.621  0.00  0.00    +0.000 C 
ATOM      3  O   UNL     1       0.977   1.964   1.752  0.00  0.00    +0.000 OA
ENDROOT
BRANCH   1   5
ATOM      4  C   UNL     1       1.148   0.248  -0.453  0.00  0.00    +0.000 C 
ATOM      5  N   UNL     1       2.331   0.035   0.018  0.00  0.00    +0.000 NA
ENDBRANCH   1   5
BRANCH   1   6
ATOM      6  C   UNL     1       4.326   0.955   0.859  0.00  0.00    +0.000 C 
ATOM      7  C   UNL     1       5.075   0.091   0.159  0.00  0.00    +0.000 C 
BRANCH   7   8
ATOM      8  C   UNL     1       6.595   0.066   0.138  0.00  0.00    +0.000 C 
ATOM      9  C   UNL     1       7.898   0.044   0.120  0.00  0.00    +0.000 C 
ENDBRANCH   7   8
ENDBRANCH   1   6
TORSDOF 3
