REMARK  Name = ligand_9203791
REMARK  2 active torsions:
REMARK  status: ('A' for Active; 'I' for Inactive)
REMARK    1  A    between atoms: C_1  and  O_2
REMARK    2  A    between atoms: O_2  and  C_3
REMARK                            x       y       z     vdW  Elec       q    Type
REMARK                         _______ _______ _______ _____ _____    ______ ____
ROOT
ATOM      1  C   UNL     1       3.145   1.004   1.097  0.00  0.00    +0.000 C 
ATOM      2  C   UNL     1       4.391   0.843   1.922  0.00  0.00    +0.000 C 
ATOM      3  C   UNL     1       4.502   1.077   0.444  0.00  0.00    +0.000 C 
ATOM      4  C   UNL     1       5.011   2.337  -0.126  0.00  0.00    +0.000 C 
ATOM      5  C   UNL     1       5.575   1.812  -1.392  0.00  0.00    +0.000 C 
ATOM      6  N   UNL     1       5.531   0.530  -1.544  0.00  0.00    +0.000 NA
ATOM      7  O   UNL     1       4.904  -0.030  -0.393  0.00  0.00    +0.000 OA
ENDROOT
BRANCH   1   9
ATOM      8  C   UNL     1       1.346  -0.067  -0.058  0.00  0.00    +0.000 C 
ATOM      9  O   UNL     1       2.388  -0.208   0.898  0.00  0.00    +0.000 OA
ENDBRANCH   1   9
TORSDOF 1
