REMARK  Name = ligand_9203429
REMARK  3 active torsions:
REMARK  status: ('A' for Active; 'I' for Inactive)
REMARK    1  A    between atoms: N_2  and  O_3
REMARK    2  A    between atoms: O_3  and  C_4
REMARK    3  A    between atoms: N_5  and  N_6
REMARK                            x       y       z     vdW  Elec       q    Type
REMARK                         _______ _______ _______ _____ _____    ______ ____
ROOT
ATOM      1  C   UNL     1       4.409   1.928  -0.950  0.00  0.00    +0.000 C 
ATOM      2  N   UNL     1       5.283   1.568  -1.832  0.00  0.00    +0.000 NA
ENDROOT
BRANCH   2   3
ATOM      3  N   UNL     1       6.539   1.594  -1.317  0.00  0.00    +0.000 N 
ATOM      4  C   UNL     1       7.416   0.474  -1.710  0.00  0.00    +0.000 C 
ATOM      5  C   UNL     1       8.281   1.420  -2.540  0.00  0.00    +0.000 C 
ATOM      6  C   UNL     1       7.461   2.563  -1.943  0.00  0.00    +0.000 C 
ENDBRANCH   2   3
BRANCH   1   7
ATOM      7  O   UNL     1       3.088   1.964  -1.253  0.00  0.00    +0.000 OA
BRANCH   7   9
ATOM      8  C   UNL     1       1.104   2.269  -0.372  0.00  0.00    +0.000 C 
ATOM      9  N   UNL     1       2.357   2.230  -0.078  0.00  0.00    +0.000 NA
ENDBRANCH   7   9
ENDBRANCH   1   7
TORSDOF 3
