REMARK  Name = ligand_9203634
REMARK  3 active torsions:
REMARK  status: ('A' for Active; 'I' for Inactive)
REMARK    1  A    between atoms: C_1  and  O_2
REMARK    2  A    between atoms: O_2  and  C_3
REMARK    3  A    between atoms: C_6  and  C_7
REMARK                            x       y       z     vdW  Elec       q    Type
REMARK                         _______ _______ _______ _____ _____    ______ ____
ROOT
ATOM      1  C   UNL     1       2.678  -0.549   1.707  0.00  0.00    +0.000 C 
ATOM      2  C   UNL     1       2.953   0.497   2.778  0.00  0.00    +0.000 C 
ATOM      3  C   UNL     1       3.820  -0.717   2.652  0.00  0.00    +0.000 C 
ATOM      4  C   UNL     1       3.573  -1.959   3.469  0.00  0.00    +0.000 C 
ATOM      5  C   UNL     1       2.891  -1.707   4.815  0.00  0.00    +0.000 C 
ATOM      6  N   UNL     1       2.700  -2.734   2.580  0.00  0.00    +0.000 NA
ATOM      7  C   UNL     1       1.840  -1.788   1.853  0.00  0.00    +0.000 C 
ATOM      8  H   UNL     1       2.141  -3.409   3.094  0.00  0.00    +0.000 HD
ENDROOT
BRANCH   1  10
ATOM      9  C   UNL     1       1.853   0.813  -0.051  0.00  0.00    +0.000 C 
ATOM     10  O   UNL     1       2.894  -0.071   0.367  0.00  0.00    +0.000 OA
ENDBRANCH   1  10
TORSDOF 1
