REMARK  Name = ligand_9203023
REMARK  2 active torsions:
REMARK  status: ('A' for Active; 'I' for Inactive)
REMARK    1  A    between atoms: N_2  and  O_3
REMARK    2  A    between atoms: O_3  and  C_4
REMARK                            x       y       z     vdW  Elec       q    Type
REMARK                         _______ _______ _______ _____ _____    ______ ____
ROOT
ATOM      1  C   UNL     1       4.431   1.054   0.708  0.00  0.00    +0.000 C 
ATOM      2  C   UNL     1       4.929  -0.394   0.692  0.00  0.00    +0.000 C 
ATOM      3  C   UNL     1       4.517  -1.153   1.958  0.00  0.00    +0.000 C 
ATOM      4  C   UNL     1       4.681  -0.348   3.214  0.00  0.00    +0.000 C 
ATOM      5  C   UNL     1       4.904   0.975   3.211  0.00  0.00    +0.000 C 
ATOM      6  C   UNL     1       4.971   1.792   1.949  0.00  0.00    +0.000 C 
ENDROOT
BRANCH   1   7
ATOM      7  O   UNL     1       2.994   1.028   0.709  0.00  0.00    +0.000 OA
BRANCH   7   9
ATOM      8  C   UNL     1       1.225   2.307   0.642  0.00  0.00    +0.000 C 
ATOM      9  N   UNL     1       2.501   2.318   0.456  0.00  0.00    +0.000 NA
ENDBRANCH   7   9
ENDBRANCH   1   7
TORSDOF 2
