REMARK  Name = ligand_920396
REMARK  1 active torsions:
REMARK  status: ('A' for Active; 'I' for Inactive)
REMARK    1  A    between atoms: C_1  and  C_2
REMARK                            x       y       z     vdW  Elec       q    Type
REMARK                         _______ _______ _______ _____ _____    ______ ____
ROOT
ATOM      1  C   UNL     1       0.872   0.244  -0.167  0.00  0.00    +0.000 C 
ATOM      2  C   UNL     1       2.305  -0.068   0.205  0.00  0.00    +0.000 C 
ATOM      3  C   UNL     1       2.835  -1.447  -0.228  0.00  0.00    +0.000 C 
ATOM      4  N   UNL     1       4.098  -0.815  -0.551  0.00  0.00    +0.000 N 
ATOM      5  C   UNL     1       5.019  -0.870   0.489  0.00  0.00    +0.000 C 
ATOM      6  N   UNL     1       5.480   0.066   1.260  0.00  0.00    +0.000 NA
ATOM      7  N   UNL     1       5.056   1.330   1.000  0.00  0.00    +0.000 N 
ATOM      8  C   UNL     1       4.363   1.629  -0.251  0.00  0.00    +0.000 C 
ATOM      9  C   UNL     1       3.451   0.487  -0.681  0.00  0.00    +0.000 C 
ATOM     10  H   UNL     1       4.587   1.734   1.810  0.00  0.00    +0.000 HD
ENDROOT
TORSDOF 0
