REMARK  Name = ligand_9203333
REMARK  6 active torsions:
REMARK  status: ('A' for Active; 'I' for Inactive)
REMARK    1  A    between atoms: C_1  and  N_2
REMARK    2  A    between atoms: N_2  and  O_3
REMARK    3  A    between atoms: O_3  and  C_4
REMARK    4  A    between atoms: C_4  and  C_5
REMARK    5  A    between atoms: C_5  and  N_6
REMARK    6  A    between atoms: C_7  and  C_8
REMARK                            x       y       z     vdW  Elec       q    Type
REMARK                         _______ _______ _______ _____ _____    ______ ____
ROOT
ATOM      1  C   UNL     1       0.951  -0.040   0.040  0.00  0.00    +0.000 C 
ATOM      2  N   UNL     1       2.393  -0.056   0.157  0.00  0.00    +0.000 N 
ATOM      3  C   UNL     1       3.215  -1.156   0.102  0.00  0.00    +0.000 C 
ATOM      4  C   UNL     1       2.637  -2.550   0.252  0.00  0.00    +0.000 C 
ATOM      5  N   UNL     1       4.499  -1.067  -0.049  0.00  0.00    +0.000 NA
ATOM      6  H   UNL     1       4.687  -0.062  -0.149  0.00  0.00    +0.000 HD
ENDROOT
BRANCH   2   7
ATOM      7  O   UNL     1       3.031   1.193   0.061  0.00  0.00    +0.000 OA
BRANCH   7   8
ATOM      8  C   UNL     1       2.915   1.822   1.351  0.00  0.00    +0.000 C 
BRANCH   8   9
ATOM      9  C   UNL     1       3.733   3.115   1.401  0.00  0.00    +0.000 C 
BRANCH   9  10
ATOM     10  N   UNL     1       3.309   4.089   0.393  0.00  0.00    +0.000 NA
ATOM     11  H   UNL     1       3.458   3.679  -0.531  0.00  0.00    +0.000 HD
ATOM     12  H   UNL     1       3.916   4.907   0.440  0.00  0.00    +0.000 HD
ENDBRANCH   9  10
ENDBRANCH   8   9
ENDBRANCH   7   8
ENDBRANCH   2   7
TORSDOF 4
