REMARK  Name = ligand_9204930
REMARK  3 active torsions:
REMARK  status: ('A' for Active; 'I' for Inactive)
REMARK    1  A    between atoms: C_1  and  O_2
REMARK    2  A    between atoms: O_2  and  C_3
REMARK    3  A    between atoms: C_5  and  N_6
REMARK                            x       y       z     vdW  Elec       q    Type
REMARK                         _______ _______ _______ _____ _____    ______ ____
ROOT
ATOM      1  C   UNL     1       3.073  -1.141  -0.367  0.00  0.00    +0.000 C 
ATOM      2  C   UNL     1       2.678  -2.012  -1.304  0.00  0.00    +0.000 C 
ATOM      3  C   UNL     1       3.691  -3.108  -1.470  0.00  0.00    +0.000 C 
ATOM      4  C   UNL     1       4.743  -2.670  -0.428  0.00  0.00    +0.000 C 
ATOM      5  O   UNL     1       5.771  -3.260  -0.130  0.00  0.00    +0.000 OA
ATOM      6  N   UNL     1       4.269  -1.509   0.150  0.00  0.00    +0.000 N 
ATOM      7  H   UNL     1       4.747  -1.010   0.886  0.00  0.00    +0.000 HD
ENDROOT
BRANCH   3   8
ATOM      8  N   UNL     1       3.119  -4.410  -1.131  0.00  0.00    +0.000 NA
ATOM      9  H   UNL     1       2.777  -4.369  -0.169  0.00  0.00    +0.000 HD
ATOM     10  H   UNL     1       3.889  -5.081  -1.097  0.00  0.00    +0.000 HD
ENDBRANCH   3   8
BRANCH   1  12
ATOM     11  C   UNL     1       1.197   0.275  -0.387  0.00  0.00    +0.000 C 
ATOM     12  O   UNL     1       2.491  -0.023   0.127  0.00  0.00    +0.000 OA
ENDBRANCH   1  12
TORSDOF 2
