REMARK  Name = ligand_9204331
REMARK  3 active torsions:
REMARK  status: ('A' for Active; 'I' for Inactive)
REMARK    1  A    between atoms: C_1  and  O_2
REMARK    2  A    between atoms: O_2  and  C_3
REMARK    3  A    between atoms: C_7  and  C_8
REMARK                            x       y       z     vdW  Elec       q    Type
REMARK                         _______ _______ _______ _____ _____    ______ ____
ROOT
ATOM      1  C   UNL     1       3.121  -1.033  -0.740  0.00  0.00    +0.000 A 
ATOM      2  C   UNL     1       2.625  -1.299  -2.004  0.00  0.00    +0.000 A 
ATOM      3  C   UNL     1       3.297  -2.228  -2.792  0.00  0.00    +0.000 A 
ATOM      4  C   UNL     1       4.436  -2.850  -2.287  0.00  0.00    +0.000 A 
ATOM      5  C   UNL     1       4.868  -2.522  -1.006  0.00  0.00    +0.000 A 
ATOM      6  C   UNL     1       6.092  -3.150  -0.412  0.00  0.00    +0.000 C 
ATOM      7  N   UNL     1       4.221  -1.625  -0.226  0.00  0.00    +0.000 NA
ENDROOT
BRANCH   1   9
ATOM      8  C   UNL     1       3.007   0.097   1.299  0.00  0.00    +0.000 C 
ATOM      9  O   UNL     1       2.438  -0.095   0.008  0.00  0.00    +0.000 OA
ENDBRANCH   1   9
TORSDOF 1
