REMARK  Name = ligand_9204574
REMARK  3 active torsions:
REMARK  status: ('A' for Active; 'I' for Inactive)
REMARK    1  A    between atoms: C_1  and  O_2
REMARK    2  A    between atoms: O_2  and  C_3
REMARK    3  A    between atoms: N_8  and  O_9
REMARK                            x       y       z     vdW  Elec       q    Type
REMARK                         _______ _______ _______ _____ _____    ______ ____
ROOT
ATOM      1  C   UNL     1       3.217  -0.482  -1.178  0.00  0.00    +0.000 C 
ATOM      2  C   UNL     1       2.844  -0.230  -2.447  0.00  0.00    +0.000 C 
ATOM      3  C   UNL     1       3.946  -0.594  -3.423  0.00  0.00    +0.000 C 
ATOM      4  C   UNL     1       4.991  -1.116  -2.442  0.00  0.00    +0.000 C 
ATOM      5  N   UNL     1       6.119  -1.646  -2.787  0.00  0.00    +0.000 NA
ATOM      6  N   UNL     1       4.514  -0.951  -1.159  0.00  0.00    +0.000 N 
ATOM      7  H   UNL     1       6.219  -1.625  -3.808  0.00  0.00    +0.000 HD
ENDROOT
BRANCH   1   9
ATOM      8  C   UNL     1       1.209   0.205  -0.121  0.00  0.00    +0.000 C 
ATOM      9  O   UNL     1       2.526  -0.314  -0.016  0.00  0.00    +0.000 OA
ENDBRANCH   1   9
BRANCH   6  10
ATOM     10  O   UNL     1       4.949  -1.898  -0.238  0.00  0.00    +0.000 OA
ATOM     11  H   UNL     1       5.813  -2.164  -0.614  0.00  0.00    +0.000 HD
ENDBRANCH   6  10
TORSDOF 2
