REMARK  Name = ligand_9204424
REMARK  2 active torsions:
REMARK  status: ('A' for Active; 'I' for Inactive)
REMARK    1  A    between atoms: C_1  and  O_2
REMARK    2  A    between atoms: O_2  and  C_3
REMARK                            x       y       z     vdW  Elec       q    Type
REMARK                         _______ _______ _______ _____ _____    ______ ____
ROOT
ATOM      1  C   UNL     1       2.801  -0.125  -1.358  0.00  0.00    +0.000 C 
ATOM      2  C   UNL     1       2.395   1.084  -2.198  0.00  0.00    +0.000 C 
ATOM      3  C   UNL     1       3.003   0.936  -3.583  0.00  0.00    +0.000 C 
ATOM      4  C   UNL     1       2.447  -0.308  -4.287  0.00  0.00    +0.000 C 
ATOM      5  N   UNL     1       2.259  -1.529  -3.495  0.00  0.00    +0.000 NA
ATOM      6  C   UNL     1       3.491  -2.079  -2.952  0.00  0.00    +0.000 C 
ATOM      7  C   UNL     1       2.469  -1.422  -2.044  0.00  0.00    +0.000 C 
ENDROOT
BRANCH   1   9
ATOM      8  C   UNL     1       0.901  -0.009   0.147  0.00  0.00    +0.000 C 
ATOM      9  O   UNL     1       2.309  -0.080  -0.013  0.00  0.00    +0.000 OA
ENDBRANCH   1   9
TORSDOF 1
