REMARK  Name = ligand_9205606
REMARK  2 active torsions:
REMARK  status: ('A' for Active; 'I' for Inactive)
REMARK    1  A    between atoms: C_1  and  O_2
REMARK    2  A    between atoms: O_2  and  C_3
REMARK                            x       y       z     vdW  Elec       q    Type
REMARK                         _______ _______ _______ _____ _____    ______ ____
ROOT
ATOM      1  C   UNL     1       3.085  -0.724   0.986  0.00  0.00    +0.000 C 
ATOM      2  C   UNL     1       2.795  -2.010   1.265  0.00  0.00    +0.000 C 
ATOM      3  N   UNL     1       3.509  -2.907   2.021  0.00  0.00    +0.000 NA
ATOM      4  C   UNL     1       4.092  -2.482   3.093  0.00  0.00    +0.000 C 
ATOM      5  O   UNL     1       4.071  -1.207   3.561  0.00  0.00    +0.000 OA
ATOM      6  N   UNL     1       4.856  -0.365   2.743  0.00  0.00    +0.000 NA
ATOM      7  C   UNL     1       4.319  -0.145   1.585  0.00  0.00    +0.000 C 
ENDROOT
BRANCH   1   9
ATOM      8  C   UNL     1       1.427  -0.481  -0.724  0.00  0.00    +0.000 C 
ATOM      9  O   UNL     1       2.427   0.103   0.101  0.00  0.00    +0.000 OA
ENDBRANCH   1   9
TORSDOF 1
