REMARK  Name = ligand_9205613
REMARK  3 active torsions:
REMARK  status: ('A' for Active; 'I' for Inactive)
REMARK    1  A    between atoms: C_1  and  O_2
REMARK    2  A    between atoms: O_2  and  C_3
REMARK    3  A    between atoms: C_7  and  C_8
REMARK                            x       y       z     vdW  Elec       q    Type
REMARK                         _______ _______ _______ _____ _____    ______ ____
ROOT
ATOM      1  C   UNL     1       3.141   0.143   1.279  0.00  0.00    +0.000 A 
ATOM      2  C   UNL     1       2.876  -0.510   2.464  0.00  0.00    +0.000 A 
ATOM      3  N   UNL     1       3.784  -0.070   3.393  0.00  0.00    +0.000 N 
ATOM      4  C   UNL     1       4.630   0.842   2.815  0.00  0.00    +0.000 A 
ATOM      5  C   UNL     1       4.265   0.989   1.493  0.00  0.00    +0.000 A 
ATOM      6  H   UNL     1       3.830  -0.376   4.356  0.00  0.00    +0.000 HD
ENDROOT
BRANCH   1   8
ATOM      7  C   UNL     1       1.172  -0.519   0.216  0.00  0.00    +0.000 C 
ATOM      8  O   UNL     1       2.492  -0.003   0.099  0.00  0.00    +0.000 OA
ENDBRANCH   1   8
BRANCH   5   9
ATOM      9  C   UNL     1       4.890   1.839   0.531  0.00  0.00    +0.000 C 
ATOM     10  C   UNL     1       5.931   2.655   0.750  0.00  0.00    +0.000 C 
ENDBRANCH   5   9
TORSDOF 2
