REMARK  Name = ligand_9205627
REMARK  3 active torsions:
REMARK  status: ('A' for Active; 'I' for Inactive)
REMARK    1  A    between atoms: C_1  and  O_2
REMARK    2  A    between atoms: O_2  and  C_3
REMARK    3  A    between atoms: C_6  and  C_7
REMARK                            x       y       z     vdW  Elec       q    Type
REMARK                         _______ _______ _______ _____ _____    ______ ____
ROOT
ATOM      1  C   UNL     1       3.010   0.989   0.568  0.00  0.00    +0.000 A 
ATOM      2  C   UNL     1       2.823   1.665   1.751  0.00  0.00    +0.000 A 
ATOM      3  N   UNL     1       3.736   2.691   1.787  0.00  0.00    +0.000 N 
ATOM      4  C   UNL     1       4.511   2.678   0.648  0.00  0.00    +0.000 A 
ATOM      5  C   UNL     1       4.082   1.606  -0.114  0.00  0.00    +0.000 A 
ATOM      6  H   UNL     1       3.825   3.356   2.543  0.00  0.00    +0.000 HD
ENDROOT
BRANCH   1   8
ATOM      7  C   UNL     1       1.041  -0.254   0.654  0.00  0.00    +0.000 C 
ATOM      8  O   UNL     1       2.346  -0.096   0.112  0.00  0.00    +0.000 OA
ENDBRANCH   1   8
BRANCH   4   9
ATOM      9  C   UNL     1       5.504   3.675   0.505  0.00  0.00    +0.000 C 
ATOM     10  C   UNL     1       6.283   3.733  -0.583  0.00  0.00    +0.000 C 
ENDBRANCH   4   9
TORSDOF 2
