REMARK  Name = ligand_9205494
REMARK  3 active torsions:
REMARK  status: ('A' for Active; 'I' for Inactive)
REMARK    1  A    between atoms: C_1  and  O_2
REMARK    2  A    between atoms: O_2  and  C_3
REMARK    3  A    between atoms: C_7  and  O_8
REMARK                            x       y       z     vdW  Elec       q    Type
REMARK                         _______ _______ _______ _____ _____    ______ ____
ROOT
ATOM      1  C   UNL     1       2.901   1.165   0.586  0.00  0.00    +0.000 C 
ATOM      2  C   UNL     1       2.700   2.493  -0.188  0.00  0.00    +0.000 C 
ATOM      3  N   UNL     1       3.174   2.439  -1.577  0.00  0.00    +0.000 NA
ATOM      4  C   UNL     1       4.565   1.985  -1.664  0.00  0.00    +0.000 C 
ATOM      5  C   UNL     1       4.831   0.665  -0.916  0.00  0.00    +0.000 C 
ATOM      6  C   UNL     1       4.384   0.789   0.545  0.00  0.00    +0.000 C 
ATOM      7  H   UNL     1       3.081   3.353  -2.016  0.00  0.00    +0.000 HD
ENDROOT
BRANCH   1   9
ATOM      8  C   UNL     1       0.798   0.170  -0.051  0.00  0.00    +0.000 C 
ATOM      9  O   UNL     1       2.204   0.045   0.025  0.00  0.00    +0.000 OA
ENDBRANCH   1   9
BRANCH   5  10
ATOM     10  O   UNL     1       6.213   0.318  -0.981  0.00  0.00    +0.000 OA
ATOM     11  H   UNL     1       6.714   0.975  -0.469  0.00  0.00    +0.000 HD
ENDBRANCH   5  10
TORSDOF 2
