REMARK  Name = ligand_920501
REMARK  3 active torsions:
REMARK  status: ('A' for Active; 'I' for Inactive)
REMARK    1  A    between atoms: C_1  and  C_2
REMARK    2  A    between atoms: C_2  and  C_8
REMARK    3  A    between atoms: C_5  and  C_6
REMARK                            x       y       z     vdW  Elec       q    Type
REMARK                         _______ _______ _______ _____ _____    ______ ____
ROOT
ATOM      1  C   UNL     1       0.924  -0.136  -0.110  0.00  0.00    +0.000 C 
ATOM      2  C   UNL     1       2.445  -0.017  -0.173  0.00  0.00    +0.000 C 
ATOM      3  C   UNL     1       3.205  -1.062   0.689  0.00  0.00    +0.000 C 
ATOM      4  N   UNL     1       4.118  -0.003   1.168  0.00  0.00    +0.000 NA
ATOM      5  C   UNL     1       3.151   1.039   0.747  0.00  0.00    +0.000 C 
ATOM      6  H   UNL     1       4.983   0.040   0.628  0.00  0.00    +0.000 HD
ENDROOT
BRANCH   5   7
ATOM      7  C   UNL     1       2.405   1.527   1.941  0.00  0.00    +0.000 C 
ATOM      8  C   UNL     1       1.939   2.780   1.993  0.00  0.00    +0.000 C 
ENDBRANCH   5   7
BRANCH   2   9
ATOM      9  C   UNL     1       2.869   0.021  -1.576  0.00  0.00    +0.000 C 
ATOM     10  C   UNL     1       3.168   0.032  -2.741  0.00  0.00    +0.000 C 
ENDBRANCH   2   9
TORSDOF 2
