REMARK  Name = ligand_9206865
REMARK  3 active torsions:
REMARK  status: ('A' for Active; 'I' for Inactive)
REMARK    1  A    between atoms: C_1  and  O_2
REMARK    2  A    between atoms: O_2  and  C_3
REMARK    3  A    between atoms: C_3  and  C_4
REMARK                            x       y       z     vdW  Elec       q    Type
REMARK                         _______ _______ _______ _____ _____    ______ ____
ROOT
ATOM      1  C   UNL     1       4.468  -0.798   1.134  0.00  0.00    +0.000 C 
ATOM      2  C   UNL     1       5.366  -1.780   1.027  0.00  0.00    +0.000 C 
ATOM      3  C   UNL     1       6.706  -1.183   1.141  0.00  0.00    +0.000 C 
ATOM      4  O   UNL     1       7.737  -1.829   1.078  0.00  0.00    +0.000 OA
ATOM      5  N   UNL     1       6.564   0.167   1.334  0.00  0.00    +0.000 NA
ATOM      6  C   UNL     1       5.291   0.386   1.321  0.00  0.00    +0.000 C 
ENDROOT
BRANCH   1   7
ATOM      7  C   UNL     1       2.995  -0.819   1.116  0.00  0.00    +0.000 C 
BRANCH   7   9
ATOM      8  C   UNL     1       1.118  -0.024  -0.059  0.00  0.00    +0.000 C 
ATOM      9  O   UNL     1       2.539  -0.016   0.031  0.00  0.00    +0.000 OA
ENDBRANCH   7   9
ENDBRANCH   1   7
TORSDOF 2
