REMARK  Name = ligand_9206804
REMARK  3 active torsions:
REMARK  status: ('A' for Active; 'I' for Inactive)
REMARK    1  A    between atoms: C_1  and  O_2
REMARK    2  A    between atoms: O_2  and  C_3
REMARK    3  A    between atoms: C_3  and  C_4
REMARK                            x       y       z     vdW  Elec       q    Type
REMARK                         _______ _______ _______ _____ _____    ______ ____
ROOT
ATOM      1  C   UNL     1       4.466   1.161   0.554  0.00  0.00    +0.000 A 
ATOM      2  C   UNL     1       5.132   2.374   0.521  0.00  0.00    +0.000 A 
ATOM      3  C   UNL     1       6.506   2.319   0.533  0.00  0.00    +0.000 A 
ATOM      4  N   UNL     1       7.204   1.170   0.573  0.00  0.00    +0.000 NA
ATOM      5  C   UNL     1       6.468   0.049   0.599  0.00  0.00    +0.000 A 
ATOM      6  N   UNL     1       5.127  -0.019   0.602  0.00  0.00    +0.000 NA
ENDROOT
BRANCH   1   7
ATOM      7  C   UNL     1       2.957   1.118   0.573  0.00  0.00    +0.000 C 
BRANCH   7   9
ATOM      8  C   UNL     1       1.008   1.788  -0.565  0.00  0.00    +0.000 C 
ATOM      9  O   UNL     1       2.428   1.837  -0.544  0.00  0.00    +0.000 OA
ENDBRANCH   7   9
ENDBRANCH   1   7
TORSDOF 2
