REMARK  Name = ligand_9206535
REMARK  2 active torsions:
REMARK  status: ('A' for Active; 'I' for Inactive)
REMARK    1  A    between atoms: C_1  and  O_2
REMARK    2  A    between atoms: O_2  and  C_3
REMARK                            x       y       z     vdW  Elec       q    Type
REMARK                         _______ _______ _______ _____ _____    ______ ____
ROOT
ATOM      1  C   UNL     1       2.922  -0.905  -1.562  0.00  0.00    +0.000 A 
ATOM      2  C   UNL     1       2.584  -1.505  -2.734  0.00  0.00    +0.000 A 
ATOM      3  C   UNL     1       2.268  -1.128  -4.128  0.00  0.00    +0.000 C 
ATOM      4  C   UNL     1       3.437  -2.066  -4.542  0.00  0.00    +0.000 C 
ATOM      5  C   UNL     1       3.659  -2.284  -3.090  0.00  0.00    +0.000 A 
ATOM      6  N   UNL     1       4.678  -2.195  -2.247  0.00  0.00    +0.000 NA
ATOM      7  O   UNL     1       4.157  -1.402  -1.192  0.00  0.00    +0.000 OA
ENDROOT
BRANCH   1   9
ATOM      8  C   UNL     1       1.187   0.575  -1.150  0.00  0.00    +0.000 C 
ATOM      9  O   UNL     1       2.446   0.043  -0.765  0.00  0.00    +0.000 OA
ENDBRANCH   1   9
TORSDOF 1
