REMARK  Name = ligand_9207610
REMARK  4 active torsions:
REMARK  status: ('A' for Active; 'I' for Inactive)
REMARK    1  A    between atoms: C_1  and  O_2
REMARK    2  A    between atoms: O_2  and  C_3
REMARK    3  A    between atoms: C_4  and  C_5
REMARK    4  A    between atoms: C_7  and  C_8
REMARK                            x       y       z     vdW  Elec       q    Type
REMARK                         _______ _______ _______ _____ _____    ______ ____
ROOT
ATOM      1  C   UNL     1       5.135  -0.281  -2.429  0.00  0.00    +0.000 C 
ATOM      2  N   UNL     1       6.583  -0.432  -2.332  0.00  0.00    +0.000 NA
ATOM      3  C   UNL     1       6.071   0.771  -2.984  0.00  0.00    +0.000 C 
ATOM      4  H   UNL     1       6.925  -1.096  -3.025  0.00  0.00    +0.000 HD
ENDROOT
BRANCH   1   6
ATOM      5  C   UNL     1       3.088   0.079  -1.044  0.00  0.00    +0.000 C 
ATOM      6  C   UNL     1       4.410  -0.085  -1.170  0.00  0.00    +0.000 C 
BRANCH   5   8
ATOM      7  C   UNL     1       1.299   0.998   0.105  0.00  0.00    +0.000 C 
ATOM      8  O   UNL     1       2.485   0.212   0.178  0.00  0.00    +0.000 OA
ENDBRANCH   5   8
ENDBRANCH   1   6
BRANCH   3   9
ATOM      9  C   UNL     1       6.261   2.024  -2.315  0.00  0.00    +0.000 C 
ATOM     10  C   UNL     1       6.425   3.070  -1.750  0.00  0.00    +0.000 C 
ENDBRANCH   3   9
TORSDOF 3
