REMARK  Name = ligand_9207148
REMARK  5 active torsions:
REMARK  status: ('A' for Active; 'I' for Inactive)
REMARK    1  A    between atoms: C_1  and  O_2
REMARK    2  A    between atoms: O_2  and  C_3
REMARK    3  A    between atoms: C_3  and  C_4
REMARK    4  A    between atoms: C_6  and  C_7
REMARK    5  A    between atoms: C_6  and  C_8
REMARK                            x       y       z     vdW  Elec       q    Type
REMARK                         _______ _______ _______ _____ _____    ______ ____
ROOT
ATOM      1  C   UNL     1       4.339   0.988  -0.807  0.00  0.00    +0.000 C 
ATOM      2  N   UNL     1       5.056   1.647  -1.903  0.00  0.00    +0.000 NA
ATOM      3  C   UNL     1       4.995   0.168  -1.910  0.00  0.00    +0.000 C 
ATOM      4  C   UNL     1       6.269  -0.571  -1.596  0.00  0.00    +0.000 C 
ATOM      5  H   UNL     1       5.970   1.971  -1.578  0.00  0.00    +0.000 HD
ENDROOT
BRANCH   3   6
ATOM      6  C   UNL     1       4.129  -0.383  -2.999  0.00  0.00    +0.000 C 
ATOM      7  O   UNL     1       3.535  -1.443  -2.865  0.00  0.00    +0.000 OA
ENDBRANCH   3   6
BRANCH   1   8
ATOM      8  C   UNL     1       2.853   1.148  -0.704  0.00  0.00    +0.000 C 
BRANCH   8  10
ATOM      9  C   UNL     1       0.998   0.513   0.598  0.00  0.00    +0.000 C 
ATOM     10  O   UNL     1       2.406   0.415   0.435  0.00  0.00    +0.000 OA
ENDBRANCH   8  10
ENDBRANCH   1   8
TORSDOF 3
