REMARK  Name = ligand_9208820
REMARK  6 active torsions:
REMARK  status: ('A' for Active; 'I' for Inactive)
REMARK    1  A    between atoms: C_1  and  O_2
REMARK    2  A    between atoms: O_2  and  C_3
REMARK    3  A    between atoms: C_3  and  C_4
REMARK    4  A    between atoms: C_5  and  C_6
REMARK    5  A    between atoms: C_6  and  O_7
REMARK    6  A    between atoms: C_6  and  C_8
REMARK                            x       y       z     vdW  Elec       q    Type
REMARK                         _______ _______ _______ _____ _____    ______ ____
ROOT
ATOM      1  C   UNL     1       3.067   1.226   0.450  0.00  0.00    +0.000 C 
ATOM      2  C   UNL     1       2.237   2.364   0.981  0.00  0.00    +0.000 C 
ATOM      3  C   UNL     1       4.412   1.261   0.457  0.00  0.00    +0.000 C 
ENDROOT
BRANCH   1   5
ATOM      4  C   UNL     1       1.055   0.011  -0.110  0.00  0.00    +0.000 C 
ATOM      5  O   UNL     1       2.475   0.082  -0.062  0.00  0.00    +0.000 OA
ENDBRANCH   1   5
BRANCH   3   6
ATOM      6  C   UNL     1       5.280   2.376   0.971  0.00  0.00    +0.000 C 
BRANCH   6   7
ATOM      7  O   UNL     1       6.061   1.858   2.052  0.00  0.00    +0.000 OA
ATOM      8  H   UNL     1       6.620   1.147   1.693  0.00  0.00    +0.000 HD
ENDBRANCH   6   7
BRANCH   6   9
ATOM      9  C   UNL     1       6.139   2.923  -0.103  0.00  0.00    +0.000 C 
ATOM     10  N   UNL     1       6.822   3.352  -0.939  0.00  0.00    +0.000 NA
ENDBRANCH   6   9
ENDBRANCH   3   6
TORSDOF 4
