REMARK  Name = ligand_9208694
REMARK  5 active torsions:
REMARK  status: ('A' for Active; 'I' for Inactive)
REMARK    1  A    between atoms: C_1  and  O_2
REMARK    2  A    between atoms: O_2  and  C_3
REMARK    3  A    between atoms: C_3  and  C_4
REMARK    4  A    between atoms: C_5  and  C_6
REMARK    5  A    between atoms: N_7  and  N_8
REMARK                            x       y       z     vdW  Elec       q    Type
REMARK                         _______ _______ _______ _____ _____    ______ ____
ROOT
ATOM      1  C   UNL     1       3.233  -1.140   0.547  0.00  0.00    +0.000 C 
ATOM      2  N   UNL     1       4.523  -1.090   0.530  0.00  0.00    +0.000 NA
ENDROOT
BRANCH   1   3
ATOM      3  C   UNL     1       2.266  -2.215   0.904  0.00  0.00    +0.000 C 
ATOM      4  C   UNL     1       2.483  -3.125   1.866  0.00  0.00    +0.000 C 
ATOM      5  C   UNL     1       1.531  -4.223   2.204  0.00  0.00    +0.000 C 
ENDBRANCH   1   3
BRANCH   1   7
ATOM      6  C   UNL     1       3.187   1.059  -0.348  0.00  0.00    +0.000 C 
ATOM      7  O   UNL     1       2.471  -0.079   0.144  0.00  0.00    +0.000 OA
ENDBRANCH   1   7
BRANCH   2   8
ATOM      8  N   UNL     1       5.164  -2.264   0.906  0.00  0.00    +0.000 NA
ATOM      9  C   UNL     1       6.445  -2.116   0.878  0.00  0.00    +0.000 C 
ENDBRANCH   2   8
TORSDOF 3
