REMARK  Name = ligand_9210120
REMARK  6 active torsions:
REMARK  status: ('A' for Active; 'I' for Inactive)
REMARK    1  A    between atoms: C_1  and  O_2
REMARK    2  A    between atoms: O_2  and  C_3
REMARK    3  A    between atoms: C_3  and  C_4
REMARK    4  A    between atoms: C_4  and  N_5
REMARK    5  A    between atoms: C_6  and  C_8
REMARK    6  A    between atoms: C_8  and  N_9
REMARK                            x       y       z     vdW  Elec       q    Type
REMARK                         _______ _______ _______ _____ _____    ______ ____
ROOT
ATOM      1  N   UNL     1       5.048   2.746   0.485  0.00  0.00    +0.000 N 
ATOM      2  C   UNL     1       6.412   2.930   0.503  0.00  0.00    +0.000 C 
ATOM      3  O   UNL     1       7.225   2.012   0.439  0.00  0.00    +0.000 OA
ATOM      4  H   UNL     1       4.506   3.589   0.301  0.00  0.00    +0.000 HD
ENDROOT
BRANCH   1   5
ATOM      5  C   UNL     1       4.471   1.454   0.174  0.00  0.00    +0.000 C 
BRANCH   5   6
ATOM      6  C   UNL     1       2.945   1.480   0.210  0.00  0.00    +0.000 C 
BRANCH   6   8
ATOM      7  C   UNL     1       1.048   2.341  -0.899  0.00  0.00    +0.000 C 
ATOM      8  O   UNL     1       2.468   2.329  -0.840  0.00  0.00    +0.000 OA
ENDBRANCH   6   8
ENDBRANCH   5   6
ENDBRANCH   1   5
BRANCH   2   9
ATOM      9  C   UNL     1       6.839   4.394   0.664  0.00  0.00    +0.000 C 
BRANCH   9  10
ATOM     10  N   UNL     1       5.814   5.314   0.125  0.00  0.00    +0.000 NA
ATOM     11  H   UNL     1       5.753   5.164  -0.884  0.00  0.00    +0.000 HD
ATOM     12  H   UNL     1       6.158   6.268   0.237  0.00  0.00    +0.000 HD
ENDBRANCH   9  10
ENDBRANCH   2   9
TORSDOF 5
