REMARK  Name = ligand_9210823
REMARK  4 active torsions:
REMARK  status: ('A' for Active; 'I' for Inactive)
REMARK    1  A    between atoms: C_1  and  O_2
REMARK    2  A    between atoms: O_2  and  C_3
REMARK    3  A    between atoms: N_5  and  C_6
REMARK    4  A    between atoms: N_5  and  N_7
REMARK                            x       y       z     vdW  Elec       q    Type
REMARK                         _______ _______ _______ _____ _____    ______ ____
ROOT
ATOM      1  C   UNL     1       3.094  -1.072  -0.811  0.00  0.00    +0.000 C 
ATOM      2  N   UNL     1       2.381  -1.815  -1.586  0.00  0.00    +0.000 NA
ATOM      3  N   UNL     1       4.475  -1.143  -0.607  0.00  0.00    +0.000 N 
ATOM      4  C   UNL     1       5.182  -0.048   0.073  0.00  0.00    +0.000 C 
ATOM      5  H   UNL     1       1.395  -1.583  -1.531  0.00  0.00    +0.000 HD
ENDROOT
BRANCH   3   6
ATOM      6  N   UNL     1       5.298  -1.822  -1.562  0.00  0.00    +0.000 NA
ATOM      7  C   UNL     1       4.899  -3.183  -1.901  0.00  0.00    +0.000 C 
ATOM      8  C   UNL     1       5.904  -2.948  -0.826  0.00  0.00    +0.000 C 
ENDBRANCH   3   6
BRANCH   1  10
ATOM      9  C   UNL     1       1.092   0.055   0.028  0.00  0.00    +0.000 C 
ATOM     10  O   UNL     1       2.513  -0.113  -0.036  0.00  0.00    +0.000 OA
ENDBRANCH   1  10
TORSDOF 2
