REMARK  Name = ligand_9210510
REMARK  6 active torsions:
REMARK  status: ('A' for Active; 'I' for Inactive)
REMARK    1  A    between atoms: C_1  and  O_2
REMARK    2  A    between atoms: O_2  and  C_3
REMARK    3  A    between atoms: C_3  and  C_4
REMARK    4  A    between atoms: C_4  and  O_5
REMARK    5  A    between atoms: O_5  and  N_6
REMARK    6  A    between atoms: C_7  and  C_8
REMARK                            x       y       z     vdW  Elec       q    Type
REMARK                         _______ _______ _______ _____ _____    ______ ____
ROOT
ATOM      1  O   UNL     1       4.937   2.179   1.683  0.00  0.00    +0.000 OA
ENDROOT
BRANCH   1   2
ATOM      2  N   UNL     1       6.341   2.212   1.705  0.00  0.00    +0.000 NA
ATOM      3  C   UNL     1       6.732   3.206   2.438  0.00  0.00    +0.000 C 
BRANCH   3   4
ATOM      4  C   UNL     1       8.169   3.486   2.642  0.00  0.00    +0.000 C 
ATOM      5  C   UNL     1       8.580   4.509   3.399  0.00  0.00    +0.000 C 
ENDBRANCH   3   4
ENDBRANCH   1   2
BRANCH   1   6
ATOM      6  C   UNL     1       4.515   1.077   0.872  0.00  0.00    +0.000 C 
BRANCH   6   7
ATOM      7  C   UNL     1       2.990   1.049   0.851  0.00  0.00    +0.000 C 
BRANCH   7   9
ATOM      8  C   UNL     1       1.089  -0.067   0.028  0.00  0.00    +0.000 C 
ATOM      9  O   UNL     1       2.512  -0.035   0.053  0.00  0.00    +0.000 OA
ENDBRANCH   7   9
ENDBRANCH   6   7
ENDBRANCH   1   6
TORSDOF 5
