REMARK  Name = ligand_9211107
REMARK  7 active torsions:
REMARK  status: ('A' for Active; 'I' for Inactive)
REMARK    1  A    between atoms: C_1  and  O_2
REMARK    2  A    between atoms: O_2  and  C_3
REMARK    3  A    between atoms: C_3  and  O_4
REMARK    4  A    between atoms: O_4  and  C_5
REMARK    5  A    between atoms: C_5  and  C_6
REMARK    6  A    between atoms: C_7  and  C_8
REMARK    7  A    between atoms: C_8  and  N_9
REMARK                            x       y       z     vdW  Elec       q    Type
REMARK                         _______ _______ _______ _____ _____    ______ ____
ROOT
ATOM      1  C   UNL     1       6.308  -1.750  -2.133  0.00  0.00    +0.000 C 
ATOM      2  C   UNL     1       7.612  -1.750  -2.133  0.00  0.00    +0.000 C 
ENDROOT
BRANCH   1   3
ATOM      3  C   UNL     1       4.788  -1.750  -2.133  0.00  0.00    +0.000 C 
BRANCH   3   4
ATOM      4  O   UNL     1       4.313  -0.918  -1.085  0.00  0.00    +0.000 OA
BRANCH   4   5
ATOM      5  C   UNL     1       2.892  -0.936  -1.062  0.00  0.00    +0.000 C 
BRANCH   5   7
ATOM      6  C   UNL     1       2.815  -2.800   0.372  0.00  0.00    +0.000 C 
ATOM      7  O   UNL     1       2.364  -2.239  -0.855  0.00  0.00    +0.000 OA
ENDBRANCH   5   7
ENDBRANCH   4   5
ENDBRANCH   3   4
ENDBRANCH   1   3
BRANCH   2   8
ATOM      8  C   UNL     1       9.132  -1.750  -2.133  0.00  0.00    +0.000 C 
BRANCH   8   9
ATOM      9  N   UNL     1       9.615  -0.856  -3.172  0.00  0.00    +0.000 NA
ATOM     10  H   UNL     1       9.278  -1.191  -4.076  0.00  0.00    +0.000 HD
ATOM     11  H   UNL     1      10.630  -0.900  -3.206  0.00  0.00    +0.000 HD
ENDBRANCH   8   9
ENDBRANCH   2   8
TORSDOF 6
