REMARK  Name = ligand_9211277
REMARK  4 active torsions:
REMARK  status: ('A' for Active; 'I' for Inactive)
REMARK    1  A    between atoms: C_1  and  O_2
REMARK    2  A    between atoms: O_2  and  C_3
REMARK    3  A    between atoms: N_5  and  C_6
REMARK    4  A    between atoms: C_7  and  C_8
REMARK                            x       y       z     vdW  Elec       q    Type
REMARK                         _______ _______ _______ _____ _____    ______ ____
ROOT
ATOM      1  C   UNL     1       3.146  -0.553  -1.348  0.00  0.00    +0.000 C 
ATOM      2  O   UNL     1       2.458  -0.946  -2.279  0.00  0.00    +0.000 OA
ATOM      3  N   UNL     1       4.518  -0.540  -1.318  0.00  0.00    +0.000 N 
ATOM      4  H   UNL     1       4.942  -0.183  -0.473  0.00  0.00    +0.000 HD
ENDROOT
BRANCH   1   6
ATOM      5  C   UNL     1       1.219  -0.042  -0.138  0.00  0.00    +0.000 C 
ATOM      6  O   UNL     1       2.650  -0.060  -0.180  0.00  0.00    +0.000 OA
ENDBRANCH   1   6
BRANCH   3   7
ATOM      7  C   UNL     1       5.293  -0.980  -2.360  0.00  0.00    +0.000 C 
ATOM      8  C   UNL     1       6.633  -0.974  -2.346  0.00  0.00    +0.000 C 
BRANCH   8   9
ATOM      9  C   UNL     1       7.400  -1.451  -3.477  0.00  0.00    +0.000 C 
ATOM     10  C   UNL     1       8.738  -1.469  -3.517  0.00  0.00    +0.000 C 
ENDBRANCH   8   9
ENDBRANCH   3   7
TORSDOF 3
