REMARK  Name = ligand_9211250
REMARK  2 active torsions:
REMARK  status: ('A' for Active; 'I' for Inactive)
REMARK    1  A    between atoms: C_1  and  O_2
REMARK    2  A    between atoms: O_2  and  C_3
REMARK                            x       y       z     vdW  Elec       q    Type
REMARK                         _______ _______ _______ _____ _____    ______ ____
ROOT
ATOM      1  C   UNL     1       3.180   0.430  -1.233  0.00  0.00    +0.000 C 
ATOM      2  O   UNL     1       2.481  -0.258  -0.497  0.00  0.00    +0.000 OA
ATOM      3  N   UNL     1       4.566   0.399  -1.246  0.00  0.00    +0.000 N 
ATOM      4  C   UNL     1       5.333  -0.623  -0.574  0.00  0.00    +0.000 C 
ATOM      5  C   UNL     1       6.590  -0.760  -1.409  0.00  0.00    +0.000 C 
ATOM      6  C   UNL     1       6.543   0.378  -2.424  0.00  0.00    +0.000 C 
ATOM      7  N   UNL     1       5.344   1.161  -2.139  0.00  0.00    +0.000 NA
ATOM      8  H   UNL     1       4.797   1.332  -2.987  0.00  0.00    +0.000 HD
ENDROOT
BRANCH   1  10
ATOM      9  C   UNL     1       1.267   1.311  -2.306  0.00  0.00    +0.000 C 
ATOM     10  O   UNL     1       2.689   1.278  -2.185  0.00  0.00    +0.000 OA
ENDBRANCH   1  10
TORSDOF 1
