REMARK  Name = ligand_9211396
REMARK  3 active torsions:
REMARK  status: ('A' for Active; 'I' for Inactive)
REMARK    1  A    between atoms: C_1  and  O_2
REMARK    2  A    between atoms: O_2  and  N_3
REMARK    3  A    between atoms: N_8  and  O_9
REMARK                            x       y       z     vdW  Elec       q    Type
REMARK                         _______ _______ _______ _____ _____    ______ ____
ROOT
ATOM      1  N   UNL     1       2.670   0.544  -1.528  0.00  0.00    +0.000 N 
ATOM      2  C   UNL     1       3.778   0.049  -2.168  0.00  0.00    +0.000 C 
ATOM      3  C   UNL     1       4.278   0.942  -3.032  0.00  0.00    +0.000 C 
ATOM      4  C   UNL     1       3.498   2.237  -2.965  0.00  0.00    +0.000 C 
ATOM      5  C   UNL     1       2.466   1.877  -1.879  0.00  0.00    +0.000 C 
ATOM      6  N   UNL     1       1.570   2.698  -1.418  0.00  0.00    +0.000 NA
ENDROOT
BRANCH   1   8
ATOM      7  C   UNL     1       1.158  -0.381  -0.112  0.00  0.00    +0.000 C 
ATOM      8  O   UNL     1       2.446   0.221  -0.190  0.00  0.00    +0.000 OA
ENDBRANCH   1   8
BRANCH   6   9
ATOM      9  O   UNL     1       1.659   3.945  -2.049  0.00  0.00    +0.000 OA
ATOM     10  H   UNL     1       0.906   4.428  -1.660  0.00  0.00    +0.000 HD
ENDBRANCH   6   9
TORSDOF 2
