REMARK  Name = ligand_9212096
REMARK  3 active torsions:
REMARK  status: ('A' for Active; 'I' for Inactive)
REMARK    1  A    between atoms: C_1  and  O_2
REMARK    2  A    between atoms: O_2  and  N_3
REMARK    3  A    between atoms: C_4  and  C_5
REMARK                            x       y       z     vdW  Elec       q    Type
REMARK                         _______ _______ _______ _____ _____    ______ ____
ROOT
ATOM      1  C   UNL     1       5.025   2.272   1.117  0.00  0.00    +0.000 A 
ATOM      2  C   UNL     1       6.368   2.550   0.966  0.00  0.00    +0.000 A 
ATOM      3  N   UNL     1       6.631   3.618   1.776  0.00  0.00    +0.000 N 
ATOM      4  N   UNL     1       5.555   4.056   2.447  0.00  0.00    +0.000 NA
ATOM      5  C   UNL     1       4.580   3.237   2.046  0.00  0.00    +0.000 A 
ATOM      6  H   UNL     1       7.515   4.096   1.920  0.00  0.00    +0.000 HD
ENDROOT
BRANCH   1   8
ATOM      7  N   UNL     1       3.022   1.107   0.715  0.00  0.00    +0.000 NA
ATOM      8  C   UNL     1       4.284   1.227   0.463  0.00  0.00    +0.000 C 
BRANCH   7  10
ATOM      9  C   UNL     1       1.121  -0.089   0.264  0.00  0.00    +0.000 C 
ATOM     10  O   UNL     1       2.512   0.024  -0.017  0.00  0.00    +0.000 OA
ENDBRANCH   7  10
ENDBRANCH   1   8
TORSDOF 2
