REMARK  Name = ligand_9213798
REMARK  1 active torsions:
REMARK  status: ('A' for Active; 'I' for Inactive)
REMARK    1  A    between atoms: N_1  and  C_2
REMARK                            x       y       z     vdW  Elec       q    Type
REMARK                         _______ _______ _______ _____ _____    ______ ____
ROOT
ATOM      1  C   UNL     1       5.997   0.522   3.976  0.00  0.00    +0.000 C 
ATOM      2  C   UNL     1       5.519  -0.447   5.023  0.00  0.00    +0.000 C 
ATOM      3  C   UNL     1       4.990  -1.641   4.218  0.00  0.00    +0.000 C 
ATOM      4  O   UNL     1       4.940  -1.270   2.837  0.00  0.00    +0.000 OA
ATOM      5  C   UNL     1       5.162   0.053   2.849  0.00  0.00    +0.000 C 
ATOM      6  N   UNL     1       4.534   0.954   2.176  0.00  0.00    +0.000 NA
ATOM      7  N   UNL     1       4.771   2.197   2.871  0.00  0.00    +0.000 NA
ATOM      8  C   UNL     1       5.517   1.943   3.905  0.00  0.00    +0.000 C 
ENDROOT
BRANCH   1   9
ATOM      9  N   UNL     1       7.438   0.459   3.691  0.00  0.00    +0.000 NA
ATOM     10  H   UNL     1       7.726  -0.502   3.507  0.00  0.00    +0.000 HD
ATOM     11  H   UNL     1       7.973   0.783   4.494  0.00  0.00    +0.000 HD
ENDBRANCH   1   9
TORSDOF 1
