REMARK  Name = ligand_9213685
REMARK  1 active torsions:
REMARK  status: ('A' for Active; 'I' for Inactive)
REMARK    1  A    between atoms: N_1  and  C_2
REMARK                            x       y       z     vdW  Elec       q    Type
REMARK                         _______ _______ _______ _____ _____    ______ ____
ROOT
ATOM      1  C   UNL     1       2.759  -0.145   0.294  0.00  0.00    +0.000 C 
ATOM      2  C   UNL     1       3.512   1.181   0.041  0.00  0.00    +0.000 C 
ATOM      3  O   UNL     1       4.608   0.741   0.887  0.00  0.00    +0.000 OA
ATOM      4  C   UNL     1       3.714  -0.233   1.526  0.00  0.00    +0.000 C 
ATOM      5  C   UNL     1       4.457  -1.535   1.798  0.00  0.00    +0.000 C 
ATOM      6  C   UNL     1       3.923  -2.666   0.929  0.00  0.00    +0.000 C 
ATOM      7  C   UNL     1       3.897  -2.247  -0.538  0.00  0.00    +0.000 C 
ATOM      8  C   UNL     1       2.806  -1.207  -0.795  0.00  0.00    +0.000 C 
ENDROOT
BRANCH   1   9
ATOM      9  N   UNL     1       1.392   0.144   0.768  0.00  0.00    +0.000 NA
ATOM     10  H   UNL     1       0.882   0.822   0.199  0.00  0.00    +0.000 HD
ATOM     11  H   UNL     1       0.789  -0.677   0.835  0.00  0.00    +0.000 HD
ENDBRANCH   1   9
TORSDOF 1
