REMARK  Name = ligand_9214916
REMARK  2 active torsions:
REMARK  status: ('A' for Active; 'I' for Inactive)
REMARK    1  A    between atoms: N_1  and  C_2
REMARK    2  A    between atoms: C_6  and  C_7
REMARK                            x       y       z     vdW  Elec       q    Type
REMARK                         _______ _______ _______ _____ _____    ______ ____
ROOT
ATOM      1  C   UNL     1       2.233  -0.034   0.161  0.00  0.00    +0.000 C 
ATOM      2  C   UNL     1       3.383   0.745  -0.395  0.00  0.00    +0.000 C 
ATOM      3  O   UNL     1       3.352   1.196  -1.798  0.00  0.00    +0.000 OA
ATOM      4  C   UNL     1       3.620   0.041  -2.524  0.00  0.00    +0.000 C 
ATOM      5  C   UNL     1       3.664  -1.080  -1.795  0.00  0.00    +0.000 C 
ATOM      6  C   UNL     1       3.427  -0.787  -0.375  0.00  0.00    +0.000 C 
ENDROOT
BRANCH   1   7
ATOM      7  N   UNL     1       0.926  -0.046  -0.510  0.00  0.00    +0.000 NA
ATOM      8  H   UNL     1       0.427   0.826  -0.335  0.00  0.00    +0.000 HD
ATOM      9  H   UNL     1       0.336  -0.795  -0.152  0.00  0.00    +0.000 HD
ENDBRANCH   1   7
BRANCH   5  10
ATOM     10  C   UNL     1       4.043  -2.372  -2.306  0.00  0.00    +0.000 C 
ATOM     11  C   UNL     1       4.087  -3.512  -1.605  0.00  0.00    +0.000 C 
ENDBRANCH   5  10
TORSDOF 2
