REMARK  Name = ligand_9214554
REMARK  1 active torsions:
REMARK  status: ('A' for Active; 'I' for Inactive)
REMARK    1  A    between atoms: N_1  and  C_2
REMARK                            x       y       z     vdW  Elec       q    Type
REMARK                         _______ _______ _______ _____ _____    ______ ____
ROOT
ATOM      1  C   UNL     1       2.458  -0.030  -0.123  0.00  0.00    +0.000 C 
ATOM      2  C   UNL     1       3.099  -1.069   0.846  0.00  0.00    +0.000 C 
ATOM      3  C   UNL     1       2.470  -1.307   2.235  0.00  0.00    +0.000 C 
ATOM      4  N   UNL     1       2.315  -0.041   2.941  0.00  0.00    +0.000 N 
ATOM      5  C   UNL     1       2.503   1.162   2.285  0.00  0.00    +0.000 C 
ATOM      6  O   UNL     1       2.178   2.221   2.819  0.00  0.00    +0.000 OA
ATOM      7  C   UNL     1       3.167   0.948   0.860  0.00  0.00    +0.000 C 
ATOM      8  O   UNL     1       4.245  -0.111   0.950  0.00  0.00    +0.000 OA
ATOM      9  H   UNL     1       1.885   0.004   3.855  0.00  0.00    +0.000 HD
ENDROOT
BRANCH   1  10
ATOM     10  N   UNL     1       0.995  -0.016  -0.042  0.00  0.00    +0.000 NA
ATOM     11  H   UNL     1       0.548  -0.724  -0.627  0.00  0.00    +0.000 HD
ATOM     12  H   UNL     1       0.575   0.871  -0.326  0.00  0.00    +0.000 HD
ENDBRANCH   1  10
TORSDOF 1
