REMARK  Name = ligand_9214504
REMARK  2 active torsions:
REMARK  status: ('A' for Active; 'I' for Inactive)
REMARK    1  A    between atoms: N_1  and  C_2
REMARK    2  A    between atoms: C_8  and  O_9
REMARK                            x       y       z     vdW  Elec       q    Type
REMARK                         _______ _______ _______ _____ _____    ______ ____
ROOT
ATOM      1  C   UNL     1       2.530   0.055   0.145  0.00  0.00    +0.000 C 
ATOM      2  C   UNL     1       3.126   1.130  -0.696  0.00  0.00    +0.000 C 
ATOM      3  C   UNL     1       4.565   1.560  -0.515  0.00  0.00    +0.000 C 
ATOM      4  N   UNL     1       4.133   0.642  -1.558  0.00  0.00    +0.000 NA
ATOM      5  C   UNL     1       4.296  -0.719  -1.340  0.00  0.00    +0.000 C 
ATOM      6  C   UNL     1       4.691  -1.424  -0.070  0.00  0.00    +0.000 C 
ATOM      7  C   UNL     1       3.257  -1.136  -0.395  0.00  0.00    +0.000 C 
ENDROOT
BRANCH   1   8
ATOM      8  N   UNL     1       1.091  -0.084  -0.082  0.00  0.00    +0.000 NA
ATOM      9  H   UNL     1       0.638   0.802   0.134  0.00  0.00    +0.000 HD
ATOM     10  H   UNL     1       0.734  -0.748   0.608  0.00  0.00    +0.000 HD
ENDBRANCH   1   8
BRANCH   7  11
ATOM     11  O   UNL     1       2.446  -2.273  -0.751  0.00  0.00    +0.000 OA
ATOM     12  H   UNL     1       1.585  -1.927  -1.067  0.00  0.00    +0.000 HD
ENDBRANCH   7  11
TORSDOF 2
