REMARK  Name = ligand_9214611
REMARK  1 active torsions:
REMARK  status: ('A' for Active; 'I' for Inactive)
REMARK    1  A    between atoms: N_1  and  C_2
REMARK                            x       y       z     vdW  Elec       q    Type
REMARK                         _______ _______ _______ _____ _____    ______ ____
ROOT
ATOM      1  C   UNL     1       2.279   1.409  -0.510  0.00  0.00    +0.000 C 
ATOM      2  C   UNL     1       2.720   2.671  -1.216  0.00  0.00    +0.000 C 
ATOM      3  C   UNL     1       4.037   2.965  -0.512  0.00  0.00    +0.000 C 
ATOM      4  O   UNL     1       4.607   1.675  -0.204  0.00  0.00    +0.000 OA
ATOM      5  C   UNL     1       3.633   0.690  -0.616  0.00  0.00    +0.000 C 
ATOM      6  O   UNL     1       3.855   0.260  -1.974  0.00  0.00    +0.000 OA
ATOM      7  N   UNL     1       3.621   1.220  -3.002  0.00  0.00    +0.000 NA
ATOM      8  C   UNL     1       3.077   2.338  -2.635  0.00  0.00    +0.000 C 
ENDROOT
BRANCH   1   9
ATOM      9  N   UNL     1       1.088   0.769  -1.079  0.00  0.00    +0.000 NA
ATOM     10  H   UNL     1       0.795   0.002  -0.472  0.00  0.00    +0.000 HD
ATOM     11  H   UNL     1       1.357   0.316  -1.958  0.00  0.00    +0.000 HD
ENDBRANCH   1   9
TORSDOF 1
