REMARK  Name = ligand_9215233
REMARK  4 active torsions:
REMARK  status: ('A' for Active; 'I' for Inactive)
REMARK    1  A    between atoms: N_1  and  C_2
REMARK    2  A    between atoms: C_4  and  C_5
REMARK    3  A    between atoms: C_5  and  O_6
REMARK    4  A    between atoms: O_6  and  C_7
REMARK                            x       y       z     vdW  Elec       q    Type
REMARK                         _______ _______ _______ _____ _____    ______ ____
ROOT
ATOM      1  C   UNL     1       4.242   0.210  -1.302  0.00  0.00    +0.000 C 
ATOM      2  C   UNL     1       4.710  -1.148  -0.865  0.00  0.00    +0.000 C 
ATOM      3  C   UNL     1       3.247  -0.911  -1.121  0.00  0.00    +0.000 C 
ENDROOT
BRANCH   1   4
ATOM      4  N   UNL     1       4.619   0.679  -2.629  0.00  0.00    +0.000 NA
ATOM      5  H   UNL     1       5.429   1.292  -2.585  0.00  0.00    +0.000 HD
ATOM      6  H   UNL     1       3.870   1.229  -3.053  0.00  0.00    +0.000 HD
ENDBRANCH   1   4
BRANCH   3   7
ATOM      7  C   UNL     1       2.574  -1.579  -2.275  0.00  0.00    +0.000 C 
BRANCH   7   8
ATOM      8  O   UNL     1       2.619  -2.996  -2.085  0.00  0.00    +0.000 OA
BRANCH   8   9
ATOM      9  C   UNL     1       2.000  -3.712  -3.170  0.00  0.00    +0.000 C 
ATOM     10  C   UNL     1       2.059  -5.208  -3.066  0.00  0.00    +0.000 C 
ATOM     11  C   UNL     1       2.917  -4.494  -4.067  0.00  0.00    +0.000 C 
ENDBRANCH   8   9
ENDBRANCH   7   8
ENDBRANCH   3   7
TORSDOF 4
