REMARK  Name = ligand_9215274
REMARK  3 active torsions:
REMARK  status: ('A' for Active; 'I' for Inactive)
REMARK    1  A    between atoms: N_1  and  C_2
REMARK    2  A    between atoms: C_4  and  C_5
REMARK    3  A    between atoms: N_7  and  C_8
REMARK                            x       y       z     vdW  Elec       q    Type
REMARK                         _______ _______ _______ _____ _____    ______ ____
ROOT
ATOM      1  C   UNL     1       2.270  -0.415  -0.884  0.00  0.00    +0.000 C 
ATOM      2  C   UNL     1       3.398   0.130  -0.013  0.00  0.00    +0.000 C 
ATOM      3  C   UNL     1       3.610   0.149  -1.446  0.00  0.00    +0.000 C 
ENDROOT
BRANCH   3   4
ATOM      4  C   UNL     1       1.960  -1.470  -1.940  0.00  0.00    +0.000 C 
ATOM      5  O   UNL     1       2.276  -2.632  -1.819  0.00  0.00    +0.000 OA
ATOM      6  N   UNL     1       1.324  -0.834  -3.004  0.00  0.00    +0.000 N 
ATOM      7  H   UNL     1       1.120   0.140  -2.846  0.00  0.00    +0.000 HD
BRANCH   6   8
ATOM      8  C   UNL     1       0.995  -1.375  -4.222  0.00  0.00    +0.000 C 
ATOM      9  C   UNL     1       0.455  -0.616  -5.186  0.00  0.00    +0.000 C 
ENDBRANCH   6   8
ENDBRANCH   3   4
BRANCH   1  10
ATOM     10  N   UNL     1       1.010   0.295  -0.514  0.00  0.00    +0.000 NA
ATOM     11  H   UNL     1       1.082   0.610   0.457  0.00  0.00    +0.000 HD
ATOM     12  H   UNL     1       0.273  -0.421  -0.440  0.00  0.00    +0.000 HD
ENDBRANCH   1  10
TORSDOF 3
