REMARK  Name = ligand_9215737
REMARK  3 active torsions:
REMARK  status: ('A' for Active; 'I' for Inactive)
REMARK    1  A    between atoms: N_1  and  C_2
REMARK    2  A    between atoms: C_7  and  C_8
REMARK    3  A    between atoms: C_8  and  O_9
REMARK                            x       y       z     vdW  Elec       q    Type
REMARK                         _______ _______ _______ _____ _____    ______ ____
ROOT
ATOM      1  C   UNL     1       2.497   0.022   0.027  0.00  0.00    +0.000 C 
ATOM      2  C   UNL     1       2.856   0.916  -1.185  0.00  0.00    +0.000 C 
ATOM      3  C   UNL     1       2.537   0.059  -2.382  0.00  0.00    +0.000 C 
ATOM      4  N   UNL     1       3.483  -0.891  -2.944  0.00  0.00    +0.000 NA
ATOM      5  C   UNL     1       2.564  -1.376  -1.926  0.00  0.00    +0.000 C 
ATOM      6  C   UNL     1       2.942  -1.385  -0.457  0.00  0.00    +0.000 C 
ATOM      7  H   UNL     1       4.426  -0.754  -2.577  0.00  0.00    +0.000 HD
ENDROOT
BRANCH   1   8
ATOM      8  N   UNL     1       1.055   0.120   0.305  0.00  0.00    +0.000 NA
ATOM      9  H   UNL     1       0.809   1.089   0.511  0.00  0.00    +0.000 HD
ATOM     10  H   UNL     1       0.816  -0.413   1.139  0.00  0.00    +0.000 HD
ENDBRANCH   1   8
BRANCH   6  11
ATOM     11  C   UNL     1       2.357  -2.553   0.325  0.00  0.00    +0.000 C 
BRANCH  11  12
ATOM     12  O   UNL     1       2.953  -3.780  -0.090  0.00  0.00    +0.000 OA
ATOM     13  H   UNL     1       2.733  -3.905  -1.032  0.00  0.00    +0.000 HD
ENDBRANCH  11  12
ENDBRANCH   6  11
TORSDOF 3
