REMARK  Name = ligand_9215628
REMARK  1 active torsions:
REMARK  status: ('A' for Active; 'I' for Inactive)
REMARK    1  A    between atoms: N_1  and  C_2
REMARK                            x       y       z     vdW  Elec       q    Type
REMARK                         _______ _______ _______ _____ _____    ______ ____
ROOT
ATOM      1  C   UNL     1       2.523   0.236   0.184  0.00  0.00    +0.000 C 
ATOM      2  C   UNL     1       2.796   1.474  -0.773  0.00  0.00    +0.000 C 
ATOM      3  C   UNL     1       4.241   0.896  -0.796  0.00  0.00    +0.000 C 
ATOM      4  C   UNL     1       5.347   0.488  -1.754  0.00  0.00    +0.000 C 
ATOM      5  N   UNL     1       5.685  -0.837  -1.245  0.00  0.00    +0.000 N 
ATOM      6  C   UNL     1       4.632  -1.473  -0.597  0.00  0.00    +0.000 C 
ATOM      7  O   UNL     1       4.698  -2.587  -0.107  0.00  0.00    +0.000 OA
ATOM      8  C   UNL     1       3.476  -0.495  -0.762  0.00  0.00    +0.000 C 
ATOM      9  H   UNL     1       6.492  -1.380  -1.525  0.00  0.00    +0.000 HD
ENDROOT
BRANCH   1  10
ATOM     10  N   UNL     1       1.151  -0.202  -0.035  0.00  0.00    +0.000 NA
ATOM     11  H   UNL     1       0.447   0.471   0.267  0.00  0.00    +0.000 HD
ATOM     12  H   UNL     1       0.926  -1.070   0.456  0.00  0.00    +0.000 HD
ENDBRANCH   1  10
TORSDOF 1
