REMARK  Name = ligand_9216571
REMARK  2 active torsions:
REMARK  status: ('A' for Active; 'I' for Inactive)
REMARK    1  A    between atoms: N_1  and  C_2
REMARK    2  A    between atoms: N_8  and  O_9
REMARK                            x       y       z     vdW  Elec       q    Type
REMARK                         _______ _______ _______ _____ _____    ______ ____
ROOT
ATOM      1  C   UNL     1       2.450  -0.057   0.020  0.00  0.00    +0.000 C 
ATOM      2  C   UNL     1       2.925   1.082  -0.848  0.00  0.00    +0.000 C 
ATOM      3  C   UNL     1       3.062   2.359  -0.472  0.00  0.00    +0.000 C 
ATOM      4  C   UNL     1       3.295   0.567  -2.146  0.00  0.00    +0.000 C 
ATOM      5  C   UNL     1       3.303  -0.767  -2.202  0.00  0.00    +0.000 C 
ATOM      6  C   UNL     1       2.926  -1.216  -0.847  0.00  0.00    +0.000 C 
ATOM      7  N   UNL     1       3.031  -2.464  -0.492  0.00  0.00    +0.000 NA
ENDROOT
BRANCH   1   8
ATOM      8  N   UNL     1       0.986  -0.091   0.111  0.00  0.00    +0.000 NA
ATOM      9  H   UNL     1       0.681   0.627   0.761  0.00  0.00    +0.000 HD
ATOM     10  H   UNL     1       0.732  -0.990   0.524  0.00  0.00    +0.000 HD
ENDBRANCH   1   8
BRANCH   7  11
ATOM     11  O   UNL     1       2.672  -2.639   0.850  0.00  0.00    +0.000 OA
ATOM     12  H   UNL     1       2.890  -3.580   0.998  0.00  0.00    +0.000 HD
ENDBRANCH   7  11
TORSDOF 2
