REMARK  Name = ligand_9216051
REMARK  3 active torsions:
REMARK  status: ('A' for Active; 'I' for Inactive)
REMARK    1  A    between atoms: N_1  and  C_2
REMARK    2  A    between atoms: C_4  and  C_5
REMARK    3  A    between atoms: C_8  and  O_9
REMARK                            x       y       z     vdW  Elec       q    Type
REMARK                         _______ _______ _______ _____ _____    ______ ____
ROOT
ATOM      1  C   UNL     1       2.380  -0.064  -0.034  0.00  0.00    +0.000 C 
ATOM      2  C   UNL     1       3.094  -1.198   0.726  0.00  0.00    +0.000 C 
ATOM      3  C   UNL     1       4.200  -0.173   1.107  0.00  0.00    +0.000 C 
ATOM      4  C   UNL     1       3.124   0.946   0.889  0.00  0.00    +0.000 C 
ENDROOT
BRANCH   1   5
ATOM      5  N   UNL     1       0.958  -0.080   0.321  0.00  0.00    +0.000 NA
ATOM      6  H   UNL     1       0.444  -0.840  -0.127  0.00  0.00    +0.000 HD
ATOM      7  H   UNL     1       0.472   0.774   0.037  0.00  0.00    +0.000 HD
ENDBRANCH   1   5
BRANCH   3   8
ATOM      8  C   UNL     1       5.462  -0.125   0.260  0.00  0.00    +0.000 C 
ATOM      9  C   UNL     1       6.435  -1.271   0.168  0.00  0.00    +0.000 C 
ATOM     10  C   UNL     1       6.839  -0.001   0.860  0.00  0.00    +0.000 C 
ENDBRANCH   3   8
BRANCH   4  11
ATOM     11  O   UNL     1       2.406   1.376   2.070  0.00  0.00    +0.000 OA
ATOM     12  H   UNL     1       1.628   0.782   2.073  0.00  0.00    +0.000 HD
ENDBRANCH   4  11
TORSDOF 3
