REMARK  Name = ligand_9216403
REMARK  3 active torsions:
REMARK  status: ('A' for Active; 'I' for Inactive)
REMARK    1  A    between atoms: N_1  and  C_2
REMARK    2  A    between atoms: C_3  and  C_4
REMARK    3  A    between atoms: C_6  and  C_7
REMARK                            x       y       z     vdW  Elec       q    Type
REMARK                         _______ _______ _______ _____ _____    ______ ____
ROOT
ATOM      1  C   UNL     1       2.415   0.070  -0.079  0.00  0.00    +0.000 C 
ATOM      2  C   UNL     1       3.192   0.851  -1.114  0.00  0.00    +0.000 C 
ATOM      3  C   UNL     1       3.159  -0.662  -1.170  0.00  0.00    +0.000 C 
ENDROOT
BRANCH   3   4
ATOM      4  C   UNL     1       2.478  -1.391  -2.268  0.00  0.00    +0.000 C 
ATOM      5  N   UNL     1       1.312  -0.867  -2.743  0.00  0.00    +0.000 N 
ATOM      6  O   UNL     1       2.934  -2.443  -2.697  0.00  0.00    +0.000 OA
ATOM      7  H   UNL     1       0.826  -0.189  -2.163  0.00  0.00    +0.000 HD
ATOM      8  H   UNL     1       0.763  -1.458  -3.351  0.00  0.00    +0.000 HD
ENDBRANCH   3   4
BRANCH   1   9
ATOM      9  N   UNL     1       0.942   0.148  -0.065  0.00  0.00    +0.000 NA
ATOM     10  H   UNL     1       0.637   0.798   0.664  0.00  0.00    +0.000 HD
ATOM     11  H   UNL     1       0.552  -0.757   0.209  0.00  0.00    +0.000 HD
ENDBRANCH   1   9
BRANCH   2  12
ATOM     12  C   UNL     1       4.410   1.504  -0.714  0.00  0.00    +0.000 C 
ATOM     13  C   UNL     1       5.424   2.058  -0.390  0.00  0.00    +0.000 C 
ENDBRANCH   2  12
TORSDOF 3
