REMARK  Name = ligand_9216436
REMARK  3 active torsions:
REMARK  status: ('A' for Active; 'I' for Inactive)
REMARK    1  A    between atoms: N_1  and  C_2
REMARK    2  A    between atoms: C_6  and  C_7
REMARK    3  A    between atoms: C_7  and  O_8
REMARK                            x       y       z     vdW  Elec       q    Type
REMARK                         _______ _______ _______ _____ _____    ______ ____
ROOT
ATOM      1  C   UNL     1       2.503  -0.025  -0.387  0.00  0.00    +0.000 C 
ATOM      2  C   UNL     1       2.997  -1.261   0.377  0.00  0.00    +0.000 C 
ATOM      3  C   UNL     1       3.949  -0.754   1.458  0.00  0.00    +0.000 C 
ATOM      4  C   UNL     1       3.638   0.728   1.619  0.00  0.00    +0.000 C 
ATOM      5  C   UNL     1       3.240   1.172   0.219  0.00  0.00    +0.000 C 
ENDROOT
BRANCH   1   6
ATOM      6  N   UNL     1       1.062   0.135  -0.156  0.00  0.00    +0.000 NA
ATOM      7  H   UNL     1       0.575  -0.631  -0.638  0.00  0.00    +0.000 HD
ATOM      8  H   UNL     1       0.743   0.974  -0.655  0.00  0.00    +0.000 HD
ENDBRANCH   1   6
BRANCH   5   9
ATOM      9  C   UNL     1       2.619   1.005   2.711  0.00  0.00    +0.000 C 
ATOM     10  O   UNL     1       2.937   1.484   3.791  0.00  0.00    +0.000 OA
BRANCH   9  11
ATOM     11  O   UNL     1       1.347   0.651   2.448  0.00  0.00    +0.000 OA
ATOM     12  H   UNL     1       1.179   0.335   1.525  0.00  0.00    +0.000 HD
ENDBRANCH   9  11
ENDBRANCH   5   9
TORSDOF 3
