REMARK  Name = ligand_9216167
REMARK  1 active torsions:
REMARK  status: ('A' for Active; 'I' for Inactive)
REMARK    1  A    between atoms: N_1  and  C_2
REMARK                            x       y       z     vdW  Elec       q    Type
REMARK                         _______ _______ _______ _____ _____    ______ ____
ROOT
ATOM      1  C   UNL     1       2.369   0.094   0.075  0.00  0.00    +0.000 C 
ATOM      2  C   UNL     1       2.787   1.328  -0.717  0.00  0.00    +0.000 C 
ATOM      3  C   UNL     1       4.285   1.555  -0.557  0.00  0.00    +0.000 C 
ATOM      4  C   UNL     1       5.077   0.323  -0.852  0.00  0.00    +0.000 C 
ATOM      5  C   UNL     1       4.814  -0.539  -2.058  0.00  0.00    +0.000 C 
ATOM      6  N   UNL     1       4.477  -0.960  -0.738  0.00  0.00    +0.000 N 
ATOM      7  C   UNL     1       3.165  -1.170  -0.334  0.00  0.00    +0.000 C 
ATOM      8  O   UNL     1       2.706  -2.304  -0.179  0.00  0.00    +0.000 OA
ENDROOT
BRANCH   1   9
ATOM      9  N   UNL     1       0.925  -0.129  -0.120  0.00  0.00    +0.000 NA
ATOM     10  H   UNL     1       0.398   0.561   0.410  0.00  0.00    +0.000 HD
ATOM     11  H   UNL     1       0.696  -1.043   0.281  0.00  0.00    +0.000 HD
ENDBRANCH   1   9
TORSDOF 1
