REMARK  Name = ligand_9217060
REMARK  4 active torsions:
REMARK  status: ('A' for Active; 'I' for Inactive)
REMARK    1  A    between atoms: N_1  and  C_2
REMARK    2  A    between atoms: C_2  and  C_3
REMARK    3  A    between atoms: C_5  and  O_6
REMARK    4  A    between atoms: C_7  and  C_8
REMARK                            x       y       z     vdW  Elec       q    Type
REMARK                         _______ _______ _______ _____ _____    ______ ____
ROOT
ATOM      1  C   UNL     1       2.367   0.013  -0.018  0.00  0.00    +0.000 C 
ATOM      2  C   UNL     1       3.228   0.765  -1.022  0.00  0.00    +0.000 C 
ATOM      3  C   UNL     1       3.269  -0.743  -0.983  0.00  0.00    +0.000 C 
ENDROOT
BRANCH   1   4
ATOM      4  N   UNL     1       0.911   0.023  -0.230  0.00  0.00    +0.000 NA
ATOM      5  H   UNL     1       0.472   0.710   0.381  0.00  0.00    +0.000 HD
ATOM      6  H   UNL     1       0.526  -0.882   0.034  0.00  0.00    +0.000 HD
ENDBRANCH   1   4
BRANCH   1   7
ATOM      7  C   UNL     1       2.753   0.053   1.406  0.00  0.00    +0.000 C 
ATOM      8  C   UNL     1       2.922  -0.991   2.229  0.00  0.00    +0.000 C 
ENDBRANCH   1   7
BRANCH   2   9
ATOM      9  O   UNL     1       4.391   1.462  -0.524  0.00  0.00    +0.000 OA
ATOM     10  H   UNL     1       5.044   0.850  -0.144  0.00  0.00    +0.000 HD
ENDBRANCH   2   9
BRANCH   3  11
ATOM     11  C   UNL     1       2.667  -1.506  -2.089  0.00  0.00    +0.000 C 
ATOM     12  C   UNL     1       2.631  -2.841  -2.194  0.00  0.00    +0.000 C 
ENDBRANCH   3  11
TORSDOF 4
