REMARK  Name = ligand_921784
REMARK  2 active torsions:
REMARK  status: ('A' for Active; 'I' for Inactive)
REMARK    1  A    between atoms: C_1  and  C_2
REMARK    2  A    between atoms: C_2  and  C_3
REMARK                            x       y       z     vdW  Elec       q    Type
REMARK                         _______ _______ _______ _____ _____    ______ ____
ROOT
ATOM      1  C   UNL     1       1.253  -0.259   0.043  0.00  0.00    +0.000 C 
ATOM      2  C   UNL     1       2.784  -0.154   0.049  0.00  0.00    +0.000 C 
ATOM      3  C   UNL     1       3.326  -0.741  -1.270  0.00  0.00    +0.000 C 
ATOM      4  N   UNL     1       3.276  -0.944   1.185  0.00  0.00    +0.000 NA
ATOM      5  C   UNL     1       4.655  -0.637   1.540  0.00  0.00    +0.000 C 
ATOM      6  C   UNL     1       4.624   0.555   2.439  0.00  0.00    +0.000 C 
ATOM      7  N   UNL     1       4.186   1.740   2.162  0.00  0.00    +0.000 NA
ATOM      8  N   UNL     1       3.776   2.097   0.894  0.00  0.00    +0.000 NA
ATOM      9  C   UNL     1       3.152   1.322   0.056  0.00  0.00    +0.000 C 
ATOM     10  H   UNL     1       3.184  -1.937   0.975  0.00  0.00    +0.000 HD
ENDROOT
TORSDOF 0
