REMARK  Name = ligand_9218955
REMARK  2 active torsions:
REMARK  status: ('A' for Active; 'I' for Inactive)
REMARK    1  A    between atoms: N_1  and  C_2
REMARK    2  A    between atoms: N_8  and  O_9
REMARK                            x       y       z     vdW  Elec       q    Type
REMARK                         _______ _______ _______ _____ _____    ______ ____
ROOT
ATOM      1  C   UNL     1       2.329   0.242   0.050  0.00  0.00    +0.000 A 
ATOM      2  C   UNL     1       3.103   1.337  -0.052  0.00  0.00    +0.000 A 
ATOM      3  N   UNL     1       4.456   1.315  -0.255  0.00  0.00    +0.000 N 
ATOM      4  C   UNL     1       5.145   0.136  -0.280  0.00  0.00    +0.000 A 
ATOM      5  C   UNL     1       4.541  -1.055  -0.207  0.00  0.00    +0.000 A 
ATOM      6  C   UNL     1       3.044  -1.109  -0.116  0.00  0.00    +0.000 A 
ATOM      7  N   UNL     1       2.517  -2.303  -0.204  0.00  0.00    +0.000 NA
ATOM      8  H   UNL     1       4.971   2.190  -0.230  0.00  0.00    +0.000 HD
ENDROOT
BRANCH   1   9
ATOM      9  N   UNL     1       0.966   0.269   0.281  0.00  0.00    +0.000 N 
ATOM     10  H   UNL     1       0.502   1.053  -0.163  0.00  0.00    +0.000 HD
ATOM     11  H   UNL     1       0.565  -0.634   0.011  0.00  0.00    +0.000 HD
ENDBRANCH   1   9
BRANCH   7  12
ATOM     12  O   UNL     1       1.120  -2.315  -0.176  0.00  0.00    +0.000 OA
ATOM     13  H   UNL     1       0.927  -3.271  -0.208  0.00  0.00    +0.000 HD
ENDBRANCH   7  12
TORSDOF 2
