REMARK  Name = ligand_9218977
REMARK  3 active torsions:
REMARK  status: ('A' for Active; 'I' for Inactive)
REMARK    1  A    between atoms: N_1  and  C_2
REMARK    2  A    between atoms: C_5  and  O_6
REMARK    3  A    between atoms: O_6  and  C_7
REMARK                            x       y       z     vdW  Elec       q    Type
REMARK                         _______ _______ _______ _____ _____    ______ ____
ROOT
ATOM      1  C   UNL     1       2.432  -0.077   0.001  0.00  0.00    +0.000 A 
ATOM      2  C   UNL     1       3.220   1.037   0.094  0.00  0.00    +0.000 A 
ATOM      3  N   UNL     1       4.494   0.542   0.114  0.00  0.00    +0.000 N 
ATOM      4  C   UNL     1       4.409  -0.819   0.003  0.00  0.00    +0.000 A 
ATOM      5  N   UNL     1       3.157  -1.222  -0.051  0.00  0.00    +0.000 NA
ATOM      6  H   UNL     1       5.356   1.064   0.161  0.00  0.00    +0.000 HD
ENDROOT
BRANCH   1   7
ATOM      7  N   UNL     1       1.104  -0.105  -0.047  0.00  0.00    +0.000 N 
ATOM      8  H   UNL     1       0.534   0.704   0.157  0.00  0.00    +0.000 HD
ATOM      9  H   UNL     1       0.636  -1.000   0.051  0.00  0.00    +0.000 HD
ENDBRANCH   1   7
BRANCH   4  10
ATOM     10  O   UNL     1       5.507  -1.567  -0.045  0.00  0.00    +0.000 OA
BRANCH  10  11
ATOM     11  C   UNL     1       5.421  -2.858  -0.500  0.00  0.00    +0.000 C 
ATOM     12  C   UNL     1       6.476  -3.677  -0.517  0.00  0.00    +0.000 C 
ENDBRANCH  10  11
ENDBRANCH   4  10
TORSDOF 3
