REMARK  Name = ligand_921967
REMARK  2 active torsions:
REMARK  status: ('A' for Active; 'I' for Inactive)
REMARK    1  A    between atoms: C_1  and  C_2
REMARK    2  A    between atoms: C_7  and  C_8
REMARK                            x       y       z     vdW  Elec       q    Type
REMARK                         _______ _______ _______ _____ _____    ______ ____
ROOT
ATOM      1  C   UNL     1       0.922  -0.142  -0.031  0.00  0.00    +0.000 C 
ATOM      2  C   UNL     1       2.459  -0.138  -0.015  0.00  0.00    +0.000 C 
ATOM      3  C   UNL     1       3.016  -1.420  -0.641  0.00  0.00    +0.000 C 
ATOM      4  N   UNL     1       3.791  -1.293  -1.868  0.00  0.00    +0.000 NA
ATOM      5  C   UNL     1       4.117  -0.137  -2.288  0.00  0.00    +0.000 C 
ATOM      6  N   UNL     1       3.795   1.056  -1.756  0.00  0.00    +0.000 N 
ATOM      7  C   UNL     1       2.984   1.193  -0.576  0.00  0.00    +0.000 C 
ATOM      8  H   UNL     1       4.200   1.899  -2.149  0.00  0.00    +0.000 HD
ENDROOT
BRANCH   7   9
ATOM      9  C   UNL     1       3.736   1.942   0.513  0.00  0.00    +0.000 C 
ATOM     10  N   UNL     1       4.359   2.563   1.416  0.00  0.00    +0.000 NA
ENDBRANCH   7   9
TORSDOF 1
