REMARK  Name = ligand_9219356
REMARK  3 active torsions:
REMARK  status: ('A' for Active; 'I' for Inactive)
REMARK    1  A    between atoms: N_1  and  C_2
REMARK    2  A    between atoms: C_2  and  C_3
REMARK    3  A    between atoms: C_3  and  O_4
REMARK                            x       y       z     vdW  Elec       q    Type
REMARK                         _______ _______ _______ _____ _____    ______ ____
ROOT
ATOM      1  C   UNL     1       2.375  -0.019   0.060  0.00  0.00    +0.000 C 
ATOM      2  C   UNL     1       3.056  -1.002  -0.984  0.00  0.00    +0.000 C 
ATOM      3  C   UNL     1       4.566  -0.753  -0.936  0.00  0.00    +0.000 C 
ATOM      4  C   UNL     1       4.542   0.777  -0.927  0.00  0.00    +0.000 C 
ATOM      5  C   UNL     1       3.024   0.977  -0.984  0.00  0.00    +0.000 C 
ATOM      6  N   UNL     1       2.548  -0.018  -2.054  0.00  0.00    +0.000 NA
ATOM      7  H   UNL     1       3.098  -0.008  -2.913  0.00  0.00    +0.000 HD
ENDROOT
BRANCH   1   8
ATOM      8  N   UNL     1       0.893  -0.048  -0.114  0.00  0.00    +0.000 NA
ATOM      9  H   UNL     1       0.504  -0.963   0.106  0.00  0.00    +0.000 HD
ATOM     10  H   UNL     1       0.688   0.061  -1.118  0.00  0.00    +0.000 HD
ENDBRANCH   1   8
BRANCH   1  11
ATOM     11  C   UNL     1       2.762   0.018   1.526  0.00  0.00    +0.000 C 
BRANCH  11  12
ATOM     12  O   UNL     1       2.185  -1.091   2.213  0.00  0.00    +0.000 OA
ATOM     13  H   UNL     1       1.235  -0.885   2.274  0.00  0.00    +0.000 HD
ENDBRANCH  11  12
ENDBRANCH   1  11
TORSDOF 3
