REMARK  Name = ligand_9219917
REMARK  3 active torsions:
REMARK  status: ('A' for Active; 'I' for Inactive)
REMARK    1  A    between atoms: N_1  and  C_2
REMARK    2  A    between atoms: C_2  and  C_3
REMARK    3  A    between atoms: C_3  and  O_4
REMARK                            x       y       z     vdW  Elec       q    Type
REMARK                         _______ _______ _______ _____ _____    ______ ____
ROOT
ATOM      1  C   UNL     1       2.465   0.075   0.067  0.00  0.00    +0.000 C 
ATOM      2  C   UNL     1       3.109  -1.122  -0.628  0.00  0.00    +0.000 C 
ATOM      3  C   UNL     1       3.957  -0.733  -1.588  0.00  0.00    +0.000 C 
ATOM      4  N   UNL     1       3.955   0.622  -1.712  0.00  0.00    +0.000 N 
ATOM      5  C   UNL     1       3.108   1.202  -0.804  0.00  0.00    +0.000 C 
ATOM      6  N   UNL     1       2.863   2.457  -0.667  0.00  0.00    +0.000 NA
ATOM      7  H   UNL     1       4.621   1.116  -2.283  0.00  0.00    +0.000 HD
ATOM      8  H   UNL     1       3.382   2.984  -1.376  0.00  0.00    +0.000 HD
ENDROOT
BRANCH   1   9
ATOM      9  N   UNL     1       1.006   0.045  -0.087  0.00  0.00    +0.000 NA
ATOM     10  H   UNL     1       0.645  -0.843   0.248  0.00  0.00    +0.000 HD
ATOM     11  H   UNL     1       0.786   0.095  -1.082  0.00  0.00    +0.000 HD
ENDBRANCH   1   9
BRANCH   1  12
ATOM     12  C   UNL     1       2.913   0.211   1.531  0.00  0.00    +0.000 C 
BRANCH  12  13
ATOM     13  O   UNL     1       2.445  -0.891   2.319  0.00  0.00    +0.000 OA
ATOM     14  H   UNL     1       1.474  -0.845   2.271  0.00  0.00    +0.000 HD
ENDBRANCH  12  13
ENDBRANCH   1  12
TORSDOF 3
