REMARK  Name = ligand_921980
REMARK  4 active torsions:
REMARK  status: ('A' for Active; 'I' for Inactive)
REMARK    1  A    between atoms: C_1  and  C_2
REMARK    2  A    between atoms: C_2  and  C_3
REMARK    3  A    between atoms: C_3  and  N_4
REMARK    4  A    between atoms: N_6  and  N_8
REMARK                            x       y       z     vdW  Elec       q    Type
REMARK                         _______ _______ _______ _____ _____    ______ ____
ROOT
ATOM      1  C   UNL     1       0.919  -0.029   0.284  0.00  0.00    +0.000 C 
ATOM      2  C   UNL     1       2.435  -0.041   0.082  0.00  0.00    +0.000 C 
ATOM      3  C   UNL     1       3.193  -1.100   0.911  0.00  0.00    +0.000 C 
ATOM      4  N   UNL     1       3.907  -0.044   1.656  0.00  0.00    +0.000 N 
ATOM      5  C   UNL     1       3.144   1.010   0.961  0.00  0.00    +0.000 C 
ENDROOT
BRANCH   4   6
ATOM      6  N   UNL     1       5.250  -0.010   1.476  0.00  0.00    +0.000 NA
ATOM      7  C   UNL     1       5.859   0.424   2.530  0.00  0.00    +0.000 C 
ENDBRANCH   4   6
BRANCH   2   8
ATOM      8  C   UNL     1       2.850   0.040  -1.391  0.00  0.00    +0.000 C 
BRANCH   8   9
ATOM      9  N   UNL     1       2.321  -1.083  -2.169  0.00  0.00    +0.000 NA
ATOM     10  H   UNL     1       2.719  -1.955  -1.820  0.00  0.00    +0.000 HD
ATOM     11  H   UNL     1       2.644  -1.001  -3.133  0.00  0.00    +0.000 HD
ENDBRANCH   8   9
ENDBRANCH   2   8
TORSDOF 3
