REMARK  Name = ligand_9220326
REMARK  0 active torsions:
REMARK  status: ('A' for Active; 'I' for Inactive)
REMARK                            x       y       z     vdW  Elec       q    Type
REMARK                         _______ _______ _______ _____ _____    ______ ____
ROOT
ATOM      1  N   UNL     1       1.168  -0.032   0.262  0.00  0.00    +0.000 NA
ATOM      2  C   UNL     1       2.428  -0.062   0.035  0.00  0.00    +0.000 A 
ATOM      3  O   UNL     1       3.181   1.064  -0.244  0.00  0.00    +0.000 OA
ATOM      4  N   UNL     1       4.405   0.556  -0.692  0.00  0.00    +0.000 N 
ATOM      5  C   UNL     1       5.640   1.111  -0.183  0.00  0.00    +0.000 C 
ATOM      6  C   UNL     1       6.577  -0.103  -0.395  0.00  0.00    +0.000 C 
ATOM      7  C   UNL     1       5.702  -1.352  -0.132  0.00  0.00    +0.000 C 
ATOM      8  C   UNL     1       4.351  -0.748  -0.294  0.00  0.00    +0.000 A 
ATOM      9  N   UNL     1       3.198  -1.196   0.086  0.00  0.00    +0.000 NA
ATOM     10  H   UNL     1       0.868   0.940   0.158  0.00  0.00    +0.000 HD
ENDROOT
TORSDOF 0
