REMARK  Name = ligand_9220855
REMARK  1 active torsions:
REMARK  status: ('A' for Active; 'I' for Inactive)
REMARK    1  A    between atoms: C_7  and  C_8
REMARK                            x       y       z     vdW  Elec       q    Type
REMARK                         _______ _______ _______ _____ _____    ______ ____
ROOT
ATOM      1  N   UNL     1       1.051   0.286  -0.782  0.00  0.00    +0.000 NA
ATOM      2  C   UNL     1       2.272   0.212  -0.400  0.00  0.00    +0.000 C 
ATOM      3  N   UNL     1       3.036   1.323  -0.194  0.00  0.00    +0.000 NA
ATOM      4  C   UNL     1       4.128   0.853   0.337  0.00  0.00    +0.000 C 
ATOM      5  N   UNL     1       4.274  -0.510   0.525  0.00  0.00    +0.000 N 
ATOM      6  C   UNL     1       4.325  -1.338  -0.675  0.00  0.00    +0.000 C 
ATOM      7  C   UNL     1       2.982  -1.041  -0.059  0.00  0.00    +0.000 C 
ATOM      8  H   UNL     1       0.863   1.292  -0.889  0.00  0.00    +0.000 HD
ENDROOT
BRANCH   7   9
ATOM      9  C   UNL     1       2.288  -2.112   0.682  0.00  0.00    +0.000 C 
ATOM     10  O   UNL     1       2.777  -3.228   0.846  0.00  0.00    +0.000 OA
ENDBRANCH   7   9
TORSDOF 1
