REMARK  Name = ligand_9220046
REMARK  2 active torsions:
REMARK  status: ('A' for Active; 'I' for Inactive)
REMARK    1  A    between atoms: N_1  and  C_2
REMARK    2  A    between atoms: C_3  and  O_4
REMARK                            x       y       z     vdW  Elec       q    Type
REMARK                         _______ _______ _______ _____ _____    ______ ____
ROOT
ATOM      1  C   UNL     1       2.415   0.004   0.098  0.00  0.00    +0.000 C 
ATOM      2  C   UNL     1       3.032  -1.262   0.736  0.00  0.00    +0.000 C 
ATOM      3  C   UNL     1       3.338  -0.844   2.172  0.00  0.00    +0.000 C 
ATOM      4  O   UNL     1       3.630   0.556   2.127  0.00  0.00    +0.000 OA
ATOM      5  C   UNL     1       2.953   1.104   0.977  0.00  0.00    +0.000 C 
ATOM      6  C   UNL     1       2.277   2.436   1.191  0.00  0.00    +0.000 C 
ATOM      7  C   UNL     1       3.540   2.358   0.383  0.00  0.00    +0.000 C 
ENDROOT
BRANCH   1   8
ATOM      8  N   UNL     1       0.944  -0.068   0.096  0.00  0.00    +0.000 NA
ATOM      9  H   UNL     1       0.674  -0.775  -0.592  0.00  0.00    +0.000 HD
ATOM     10  H   UNL     1       0.583   0.808  -0.282  0.00  0.00    +0.000 HD
ENDBRANCH   1   8
BRANCH   2  11
ATOM     11  O   UNL     1       2.140  -2.376   0.697  0.00  0.00    +0.000 OA
ATOM     12  H   UNL     1       1.275  -2.004   0.968  0.00  0.00    +0.000 HD
ENDBRANCH   2  11
TORSDOF 2
