REMARK  Name = ligand_9220048
REMARK  1 active torsions:
REMARK  status: ('A' for Active; 'I' for Inactive)
REMARK    1  A    between atoms: N_1  and  C_2
REMARK                            x       y       z     vdW  Elec       q    Type
REMARK                         _______ _______ _______ _____ _____    ______ ____
ROOT
ATOM      1  C   UNL     1       2.379   0.134  -0.015  0.00  0.00    +0.000 C 
ATOM      2  C   UNL     1       3.043  -1.105   0.620  0.00  0.00    +0.000 C 
ATOM      3  O   UNL     1       3.711  -0.712   1.834  0.00  0.00    +0.000 OA
ATOM      4  C   UNL     1       3.745   0.644   1.923  0.00  0.00    +0.000 C 
ATOM      5  O   UNL     1       4.380   1.293   2.740  0.00  0.00    +0.000 OA
ATOM      6  C   UNL     1       2.898   1.226   0.858  0.00  0.00    +0.000 C 
ATOM      7  C   UNL     1       2.184   2.544   1.073  0.00  0.00    +0.000 C 
ATOM      8  N   UNL     1       3.373   2.483   0.233  0.00  0.00    +0.000 NA
ATOM      9  H   UNL     1       4.185   2.838   0.751  0.00  0.00    +0.000 HD
ENDROOT
BRANCH   1  10
ATOM     10  N   UNL     1       0.916   0.058  -0.028  0.00  0.00    +0.000 NA
ATOM     11  H   UNL     1       0.619  -0.742  -0.588  0.00  0.00    +0.000 HD
ATOM     12  H   UNL     1       0.555   0.876  -0.521  0.00  0.00    +0.000 HD
ENDBRANCH   1  10
TORSDOF 1
