REMARK  Name = ligand_922125
REMARK  2 active torsions:
REMARK  status: ('A' for Active; 'I' for Inactive)
REMARK    1  A    between atoms: C_1  and  C_2
REMARK    2  A    between atoms: C_5  and  C_7
REMARK                            x       y       z     vdW  Elec       q    Type
REMARK                         _______ _______ _______ _____ _____    ______ ____
ROOT
ATOM      1  C   UNL     1       2.205  -0.165  -0.048  0.00  0.00    +0.000 C 
ATOM      2  C   UNL     1       0.732  -0.075  -0.032  0.00  0.00    +0.000 A 
ATOM      3  C   UNL     1      -0.261  -1.029   0.020  0.00  0.00    +0.000 A 
ATOM      4  N   UNL     1      -1.502  -0.446   0.046  0.00  0.00    +0.000 NA
ATOM      5  C   UNL     1      -1.281   0.851   0.027  0.00  0.00    +0.000 A 
ATOM      6  N   UNL     1       0.058   1.119  -0.054  0.00  0.00    +0.000 N 
ATOM      7  H   UNL     1       0.469   2.042  -0.093  0.00  0.00    +0.000 HD
ENDROOT
BRANCH   5   8
ATOM      8  C   UNL     1      -2.358   1.919   0.118  0.00  0.00    +0.000 C 
ATOM      9  C   UNL     1      -3.582   1.600   0.953  0.00  0.00    +0.000 C 
ATOM     10  C   UNL     1      -3.702   1.674  -0.530  0.00  0.00    +0.000 C 
ENDBRANCH   5   8
TORSDOF 1
