REMARK  Name = ligand_9221117
REMARK  1 active torsions:
REMARK  status: ('A' for Active; 'I' for Inactive)
REMARK    1  A    between atoms: N_1  and  C_2
REMARK                            x       y       z     vdW  Elec       q    Type
REMARK                         _______ _______ _______ _____ _____    ______ ____
ROOT
ATOM      1  C   UNL     1       3.015  -0.047  -0.350  0.00  0.00    +0.000 A 
ATOM      2  C   UNL     1       3.907   0.999  -0.392  0.00  0.00    +0.000 A 
ATOM      3  C   UNL     1       5.206   1.259  -0.967  0.00  0.00    +0.000 C 
ATOM      4  O   UNL     1       5.638   1.091  -2.081  0.00  0.00    +0.000 OA
ATOM      5  C   UNL     1       5.716   1.696   0.428  0.00  0.00    +0.000 C 
ATOM      6  C   UNL     1       4.553   0.876   0.846  0.00  0.00    +0.000 A 
ATOM      7  N   UNL     1       4.425  -0.312   1.427  0.00  0.00    +0.000 NA
ATOM      8  N   UNL     1       3.476  -0.890   0.636  0.00  0.00    +0.000 N 
ATOM      9  H   UNL     1       3.137  -1.816   0.876  0.00  0.00    +0.000 HD
ENDROOT
BRANCH   1  10
ATOM     10  N   UNL     1       1.783  -0.190  -0.883  0.00  0.00    +0.000 N 
ATOM     11  H   UNL     1       1.339   0.653  -1.264  0.00  0.00    +0.000 HD
ATOM     12  H   UNL     1       1.088  -0.762  -0.403  0.00  0.00    +0.000 HD
ENDBRANCH   1  10
TORSDOF 1
