REMARK  Name = ligand_9221687
REMARK  2 active torsions:
REMARK  status: ('A' for Active; 'I' for Inactive)
REMARK    1  A    between atoms: N_1  and  C_2
REMARK    2  A    between atoms: C_2  and  C_3
REMARK                            x       y       z     vdW  Elec       q    Type
REMARK                         _______ _______ _______ _____ _____    ______ ____
ROOT
ATOM      1  C   UNL     1       3.159   1.636   0.228  0.00  0.00    +0.000 C 
ATOM      2  C   UNL     1       3.385   2.342  -1.041  0.00  0.00    +0.000 C 
ATOM      3  C   UNL     1       2.645   3.579  -0.665  0.00  0.00    +0.000 C 
ATOM      4  N   UNL     1       3.172   4.878  -0.655  0.00  0.00    +0.000 NA
ATOM      5  C   UNL     1       3.147   4.222   0.686  0.00  0.00    +0.000 C 
ATOM      6  C   UNL     1       2.761   2.780   1.142  0.00  0.00    +0.000 C 
ATOM      7  O   UNL     1       3.933   1.963   1.379  0.00  0.00    +0.000 OA
ATOM      8  H   UNL     1       2.451   5.600  -0.684  0.00  0.00    +0.000 HD
ENDROOT
BRANCH   1   9
ATOM      9  C   UNL     1       2.463   0.320   0.280  0.00  0.00    +0.000 C 
BRANCH   9  10
ATOM     10  N   UNL     1       3.242  -0.673  -0.450  0.00  0.00    +0.000 NA
ATOM     11  H   UNL     1       2.806  -1.587  -0.341  0.00  0.00    +0.000 HD
ATOM     12  H   UNL     1       4.163  -0.749  -0.014  0.00  0.00    +0.000 HD
ENDBRANCH   9  10
ENDBRANCH   1   9
TORSDOF 2
