REMARK  Name = ligand_9221455
REMARK  0 active torsions:
REMARK  status: ('A' for Active; 'I' for Inactive)
REMARK                            x       y       z     vdW  Elec       q    Type
REMARK                         _______ _______ _______ _____ _____    ______ ____
ROOT
ATOM      1  N   UNL     1       0.879   0.114  -0.099  0.00  0.00    +0.000 NA
ATOM      2  C   UNL     1       2.160   0.082  -0.077  0.00  0.00    +0.000 A 
ATOM      3  O   UNL     1       2.958   1.241  -0.085  0.00  0.00    +0.000 OA
ATOM      4  C   UNL     1       4.270   0.717  -0.047  0.00  0.00    +0.000 A 
ATOM      5  C   UNL     1       4.251  -0.597  -0.020  0.00  0.00    +0.000 A 
ATOM      6  C   UNL     1       4.866  -1.952   0.024  0.00  0.00    +0.000 C 
ATOM      7  C   UNL     1       3.336  -2.394  -0.010  0.00  0.00    +0.000 C 
ATOM      8  O   UNL     1       2.700  -3.421  -0.013  0.00  0.00    +0.000 OA
ATOM      9  N   UNL     1       2.976  -1.049  -0.041  0.00  0.00    +0.000 N 
ATOM     10  H   UNL     1       0.595   1.099  -0.120  0.00  0.00    +0.000 HD
ENDROOT
TORSDOF 0
