REMARK  Name = ligand_922225
REMARK  3 active torsions:
REMARK  status: ('A' for Active; 'I' for Inactive)
REMARK    1  A    between atoms: C_1  and  C_2
REMARK    2  A    between atoms: C_5  and  C_6
REMARK    3  A    between atoms: C_7  and  C_8
REMARK                            x       y       z     vdW  Elec       q    Type
REMARK                         _______ _______ _______ _____ _____    ______ ____
ROOT
ATOM      1  C   UNL     1       0.853   0.066  -0.050  0.00  0.00    +0.000 C 
ATOM      2  C   UNL     1       2.339   0.008  -0.047  0.00  0.00    +0.000 A 
ATOM      3  C   UNL     1       3.213   1.079  -0.044  0.00  0.00    +0.000 A 
ATOM      4  N   UNL     1       4.495   0.595  -0.038  0.00  0.00    +0.000 N 
ATOM      5  C   UNL     1       4.472  -0.778  -0.037  0.00  0.00    +0.000 A 
ATOM      6  C   UNL     1       5.717  -1.590  -0.028  0.00  0.00    +0.000 C 
ATOM      7  C   UNL     1       3.144  -1.168  -0.045  0.00  0.00    +0.000 A 
ATOM      8  H   UNL     1       5.331   1.168  -0.034  0.00  0.00    +0.000 HD
ENDROOT
BRANCH   7   9
ATOM      9  C   UNL     1       2.684  -2.525  -0.048  0.00  0.00    +0.000 C 
ATOM     10  N   UNL     1       2.310  -3.623  -0.051  0.00  0.00    +0.000 NA
ENDBRANCH   7   9
TORSDOF 1
