REMARK  Name = ligand_9222235
REMARK  5 active torsions:
REMARK  status: ('A' for Active; 'I' for Inactive)
REMARK    1  A    between atoms: N_1  and  C_2
REMARK    2  A    between atoms: C_2  and  C_3
REMARK    3  A    between atoms: C_3  and  C_8
REMARK    4  A    between atoms: C_5  and  C_6
REMARK    5  A    between atoms: C_6  and  O_7
REMARK                            x       y       z     vdW  Elec       q    Type
REMARK                         _______ _______ _______ _____ _____    ______ ____
ROOT
ATOM      1  C   UNL     1       2.819   0.884  -0.898  0.00  0.00    +0.000 C 
ATOM      2  C   UNL     1       3.064   2.358  -0.601  0.00  0.00    +0.000 C 
ATOM      3  C   UNL     1       2.039   1.988  -1.632  0.00  0.00    +0.000 C 
ENDROOT
BRANCH   1   4
ATOM      4  C   UNL     1       3.910   0.207  -1.649  0.00  0.00    +0.000 C 
ATOM      5  C   UNL     1       3.910  -0.160  -2.938  0.00  0.00    +0.000 C 
ENDBRANCH   1   4
BRANCH   1   6
ATOM      6  C   UNL     1       2.185   0.046   0.206  0.00  0.00    +0.000 C 
BRANCH   6   7
ATOM      7  N   UNL     1       3.088  -0.027   1.354  0.00  0.00    +0.000 NA
ATOM      8  H   UNL     1       2.594  -0.452   2.136  0.00  0.00    +0.000 HD
ATOM      9  H   UNL     1       3.330   0.916   1.652  0.00  0.00    +0.000 HD
ENDBRANCH   6   7
ENDBRANCH   1   6
BRANCH   3  10
ATOM     10  C   UNL     1       0.596   2.300  -1.407  0.00  0.00    +0.000 C 
BRANCH  10  11
ATOM     11  O   UNL     1       0.425   3.712  -1.388  0.00  0.00    +0.000 OA
ATOM     12  H   UNL     1       0.967   4.051  -0.656  0.00  0.00    +0.000 HD
ENDBRANCH  10  11
ENDBRANCH   3  10
TORSDOF 5
