REMARK  Name = ligand_9222990
REMARK  1 active torsions:
REMARK  status: ('A' for Active; 'I' for Inactive)
REMARK    1  A    between atoms: N_1  and  C_2
REMARK                            x       y       z     vdW  Elec       q    Type
REMARK                         _______ _______ _______ _____ _____    ______ ____
ROOT
ATOM      1  C   UNL     1       2.489   0.129  -0.063  0.00  0.00    +0.000 C 
ATOM      2  C   UNL     1       3.298  -0.759   0.524  0.00  0.00    +0.000 C 
ATOM      3  C   UNL     1       4.793  -0.824   0.459  0.00  0.00    +0.000 C 
ATOM      4  C   UNL     1       5.025  -2.327   0.485  0.00  0.00    +0.000 C 
ATOM      5  N   UNL     1       3.942  -2.827   1.298  0.00  0.00    +0.000 NA
ATOM      6  N   UNL     1       3.785  -4.206   1.520  0.00  0.00    +0.000 N 
ATOM      7  C   UNL     1       2.822  -1.989   1.222  0.00  0.00    +0.000 C 
ATOM      8  O   UNL     1       1.690  -2.215   1.612  0.00  0.00    +0.000 OA
ATOM      9  H   UNL     1       3.666  -4.332   2.529  0.00  0.00    +0.000 HD
ATOM     10  H   UNL     1       2.866  -4.466   1.139  0.00  0.00    +0.000 HD
ENDROOT
BRANCH   1  11
ATOM     11  N   UNL     1       1.123   0.103  -0.128  0.00  0.00    +0.000 N 
ATOM     12  H   UNL     1       0.673   1.013  -0.129  0.00  0.00    +0.000 HD
ATOM     13  H   UNL     1       0.696  -0.547   0.544  0.00  0.00    +0.000 HD
ENDBRANCH   1  11
TORSDOF 1
