REMARK  Name = ligand_9222167
REMARK  1 active torsions:
REMARK  status: ('A' for Active; 'I' for Inactive)
REMARK    1  A    between atoms: C_2  and  C_3
REMARK                            x       y       z     vdW  Elec       q    Type
REMARK                         _______ _______ _______ _____ _____    ______ ____
ROOT
ATOM      1  C   UNL     1       3.821   0.069  -0.060  0.00  0.00    +0.000 C 
ATOM      2  C   UNL     1       4.303  -1.215  -0.686  0.00  0.00    +0.000 C 
ATOM      3  C   UNL     1       4.389  -0.992  -2.163  0.00  0.00    +0.000 C 
ATOM      4  O   UNL     1       3.960   0.383  -2.402  0.00  0.00    +0.000 OA
ATOM      5  C   UNL     1       4.427   0.983  -1.149  0.00  0.00    +0.000 C 
ATOM      6  O   UNL     1       5.831   0.563  -1.105  0.00  0.00    +0.000 OA
ATOM      7  C   UNL     1       5.630  -0.876  -1.300  0.00  0.00    +0.000 C 
ENDROOT
BRANCH   1   9
ATOM      8  N   UNL     1       1.040   0.069  -0.060  0.00  0.00    +0.000 NA
ATOM      9  C   UNL     1       2.301   0.069  -0.060  0.00  0.00    +0.000 C 
ENDBRANCH   1   9
TORSDOF 1
