REMARK  Name = ligand_9222354
REMARK  2 active torsions:
REMARK  status: ('A' for Active; 'I' for Inactive)
REMARK    1  A    between atoms: N_1  and  C_2
REMARK    2  A    between atoms: C_2  and  C_3
REMARK                            x       y       z     vdW  Elec       q    Type
REMARK                         _______ _______ _______ _____ _____    ______ ____
ROOT
ATOM      1  C   UNL     1       3.121   1.348  -0.194  0.00  0.00    +0.000 C 
ATOM      2  C   UNL     1       2.146   2.532  -0.267  0.00  0.00    +0.000 C 
ATOM      3  C   UNL     1       2.916   3.624   0.392  0.00  0.00    +0.000 C 
ATOM      4  C   UNL     1       2.248   4.841   0.986  0.00  0.00    +0.000 C 
ATOM      5  O   UNL     1       2.917   4.888  -0.281  0.00  0.00    +0.000 OA
ATOM      6  C   UNL     1       4.245   3.132   0.852  0.00  0.00    +0.000 C 
ATOM      7  N   UNL     1       4.027   1.676   0.942  0.00  0.00    +0.000 NA
ATOM      8  H   UNL     1       3.528   1.492   1.813  0.00  0.00    +0.000 HD
ENDROOT
BRANCH   1   9
ATOM      9  C   UNL     1       2.429  -0.011   0.016  0.00  0.00    +0.000 C 
BRANCH   9  10
ATOM     10  N   UNL     1       1.522  -0.367  -1.074  0.00  0.00    +0.000 NA
ATOM     11  H   UNL     1       1.112  -1.280  -0.879  0.00  0.00    +0.000 HD
ATOM     12  H   UNL     1       2.061  -0.485  -1.933  0.00  0.00    +0.000 HD
ENDBRANCH   9  10
ENDBRANCH   1   9
TORSDOF 2
