REMARK  Name = ligand_9223347
REMARK  3 active torsions:
REMARK  status: ('A' for Active; 'I' for Inactive)
REMARK    1  A    between atoms: N_1  and  C_2
REMARK    2  A    between atoms: C_2  and  C_3
REMARK    3  A    between atoms: C_2  and  C_7
REMARK                            x       y       z     vdW  Elec       q    Type
REMARK                         _______ _______ _______ _____ _____    ______ ____
ROOT
ATOM      1  C   UNL     1       2.400  -0.008  -0.082  0.00  0.00    +0.000 C 
ENDROOT
BRANCH   1   2
ATOM      2  C   UNL     1       3.007  -1.399   0.046  0.00  0.00    +0.000 C 
ATOM      3  C   UNL     1       2.804  -2.181   1.362  0.00  0.00    +0.000 C 
ATOM      4  N   UNL     1       4.199  -2.665   1.240  0.00  0.00    +0.000 NA
ATOM      5  C   UNL     1       4.504  -1.457   0.433  0.00  0.00    +0.000 C 
ATOM      6  H   UNL     1       4.282  -3.528   0.699  0.00  0.00    +0.000 HD
ENDBRANCH   1   2
BRANCH   1   7
ATOM      7  C   UNL     1       2.889   0.687  -1.374  0.00  0.00    +0.000 C 
ATOM      8  N   UNL     1       1.900   1.171  -2.182  0.00  0.00    +0.000 N 
ATOM      9  O   UNL     1       4.070   0.785  -1.687  0.00  0.00    +0.000 OA
ATOM     10  H   UNL     1       0.974   1.268  -1.779  0.00  0.00    +0.000 HD
ATOM     11  H   UNL     1       2.163   1.720  -2.988  0.00  0.00    +0.000 HD
ENDBRANCH   1   7
BRANCH   1  12
ATOM     12  N   UNL     1       0.912  -0.081  -0.073  0.00  0.00    +0.000 NA
ATOM     13  H   UNL     1       0.607  -0.453   0.827  0.00  0.00    +0.000 HD
ATOM     14  H   UNL     1       0.619  -0.760  -0.777  0.00  0.00    +0.000 HD
ENDBRANCH   1  12
TORSDOF 3
