REMARK  Name = ligand_9223182
REMARK  4 active torsions:
REMARK  status: ('A' for Active; 'I' for Inactive)
REMARK    1  A    between atoms: N_1  and  C_2
REMARK    2  A    between atoms: C_2  and  C_3
REMARK    3  A    between atoms: C_4  and  C_5
REMARK    4  A    between atoms: C_5  and  O_6
REMARK                            x       y       z     vdW  Elec       q    Type
REMARK                         _______ _______ _______ _____ _____    ______ ____
ROOT
ATOM      1  C   UNL     1       2.922   1.344   0.064  0.00  0.00    +0.000 C 
ATOM      2  C   UNL     1       2.153   2.435   0.099  0.00  0.00    +0.000 C 
ATOM      3  C   UNL     1       3.022   3.632   0.217  0.00  0.00    +0.000 C 
ATOM      4  C   UNL     1       4.402   3.021   0.012  0.00  0.00    +0.000 C 
ATOM      5  O   UNL     1       4.293   1.590   0.150  0.00  0.00    +0.000 OA
ENDROOT
BRANCH   1   6
ATOM      6  C   UNL     1       2.501  -0.092   0.015  0.00  0.00    +0.000 C 
BRANCH   6   7
ATOM      7  N   UNL     1       2.438  -0.579  -1.358  0.00  0.00    +0.000 NA
ATOM      8  H   UNL     1       2.180  -1.564  -1.346  0.00  0.00    +0.000 HD
ATOM      9  H   UNL     1       3.380  -0.542  -1.749  0.00  0.00    +0.000 HD
ENDBRANCH   6   7
ENDBRANCH   1   6
BRANCH   2  10
ATOM     10  C   UNL     1       0.676   2.553   0.012  0.00  0.00    +0.000 C 
BRANCH  10  11
ATOM     11  O   UNL     1       0.192   3.185   1.186  0.00  0.00    +0.000 OA
ATOM     12  H   UNL     1       0.326   2.556   1.915  0.00  0.00    +0.000 HD
ENDBRANCH  10  11
ENDBRANCH   2  10
TORSDOF 4
