REMARK  Name = ligand_9223428
REMARK  2 active torsions:
REMARK  status: ('A' for Active; 'I' for Inactive)
REMARK    1  A    between atoms: N_1  and  C_2
REMARK    2  A    between atoms: C_2  and  C_3
REMARK                            x       y       z     vdW  Elec       q    Type
REMARK                         _______ _______ _______ _____ _____    ______ ____
ROOT
ATOM      1  C   UNL     1       2.852  -0.113  -1.439  0.00  0.00    +0.000 C 
ATOM      2  C   UNL     1       2.288   1.040  -2.296  0.00  0.00    +0.000 C 
ATOM      3  N   UNL     1       3.025   1.236  -3.544  0.00  0.00    +0.000 NA
ATOM      4  C   UNL     1       2.544   0.407  -4.654  0.00  0.00    +0.000 C 
ATOM      5  C   UNL     1       2.130  -1.032  -4.328  0.00  0.00    +0.000 C 
ATOM      6  O   UNL     1       3.018  -1.639  -3.389  0.00  0.00    +0.000 OA
ATOM      7  C   UNL     1       2.568  -1.499  -2.038  0.00  0.00    +0.000 C 
ATOM      8  H   UNL     1       4.005   0.992  -3.382  0.00  0.00    +0.000 HD
ENDROOT
BRANCH   1   9
ATOM      9  C   UNL     1       2.289  -0.005  -0.007  0.00  0.00    +0.000 C 
BRANCH   9  10
ATOM     10  N   UNL     1       2.800  -1.048   0.876  0.00  0.00    +0.000 NA
ATOM     11  H   UNL     1       2.434  -0.912   1.818  0.00  0.00    +0.000 HD
ATOM     12  H   UNL     1       3.815  -0.974   0.952  0.00  0.00    +0.000 HD
ENDBRANCH   9  10
ENDBRANCH   1   9
TORSDOF 2
