REMARK  Name = ligand_9223174
REMARK  3 active torsions:
REMARK  status: ('A' for Active; 'I' for Inactive)
REMARK    1  A    between atoms: N_1  and  C_2
REMARK    2  A    between atoms: C_2  and  C_3
REMARK    3  A    between atoms: C_5  and  O_6
REMARK                            x       y       z     vdW  Elec       q    Type
REMARK                         _______ _______ _______ _____ _____    ______ ____
ROOT
ATOM      1  C   UNL     1       2.138  -1.033  -1.268  0.00  0.00    +0.000 C 
ATOM      2  C   UNL     1       3.147  -0.464  -2.285  0.00  0.00    +0.000 C 
ATOM      3  C   UNL     1       4.573  -0.395  -1.750  0.00  0.00    +0.000 C 
ATOM      4  C   UNL     1       0.771  -1.406  -1.912  0.00  0.00    +0.000 C 
ATOM      5  C   UNL     1       0.875  -2.701  -1.098  0.00  0.00    +0.000 C 
ATOM      6  N   UNL     1       2.343  -2.509  -1.037  0.00  0.00    +0.000 NA
ATOM      7  H   UNL     1       2.814  -2.970  -1.822  0.00  0.00    +0.000 HD
ENDROOT
BRANCH   3   8
ATOM      8  O   UNL     1       5.082  -1.699  -1.493  0.00  0.00    +0.000 OA
ATOM      9  H   UNL     1       4.487  -2.102  -0.831  0.00  0.00    +0.000 HD
ENDBRANCH   3   8
BRANCH   1  10
ATOM     10  C   UNL     1       2.063  -0.260   0.071  0.00  0.00    +0.000 C 
BRANCH  10  11
ATOM     11  N   UNL     1       1.695   1.143  -0.123  0.00  0.00    +0.000 NA
ATOM     12  H   UNL     1       1.818   1.639   0.759  0.00  0.00    +0.000 HD
ATOM     13  H   UNL     1       0.698   1.202  -0.331  0.00  0.00    +0.000 HD
ENDBRANCH  10  11
ENDBRANCH   1  10
TORSDOF 3
