REMARK  Name = ligand_9224092
REMARK  2 active torsions:
REMARK  status: ('A' for Active; 'I' for Inactive)
REMARK    1  A    between atoms: N_1  and  C_2
REMARK    2  A    between atoms: C_2  and  C_3
REMARK                            x       y       z     vdW  Elec       q    Type
REMARK                         _______ _______ _______ _____ _____    ______ ____
ROOT
ATOM      1  C   UNL     1       3.073  -0.258   1.225  0.00  0.00    +0.000 C 
ATOM      2  N   UNL     1       3.701   1.001   1.739  0.00  0.00    +0.000 NA
ATOM      3  C   UNL     1       4.971   0.610   1.068  0.00  0.00    +0.000 C 
ATOM      4  C   UNL     1       6.159   0.431   2.023  0.00  0.00    +0.000 C 
ATOM      5  N   UNL     1       6.239  -0.744   2.559  0.00  0.00    +0.000 NA
ATOM      6  O   UNL     1       5.142  -1.552   2.089  0.00  0.00    +0.000 OA
ATOM      7  C   UNL     1       4.480  -0.838   1.001  0.00  0.00    +0.000 C 
ATOM      8  H   UNL     1       3.773   0.974   2.762  0.00  0.00    +0.000 HD
ENDROOT
BRANCH   1   9
ATOM      9  C   UNL     1       2.267  -0.018  -0.064  0.00  0.00    +0.000 C 
BRANCH   9  10
ATOM     10  N   UNL     1       1.187   0.942   0.169  0.00  0.00    +0.000 NA
ATOM     11  H   UNL     1       0.797   1.235  -0.725  0.00  0.00    +0.000 HD
ATOM     12  H   UNL     1       1.605   1.779   0.585  0.00  0.00    +0.000 HD
ENDBRANCH   9  10
ENDBRANCH   1   9
TORSDOF 2
