REMARK  Name = ligand_9224034
REMARK  1 active torsions:
REMARK  status: ('A' for Active; 'I' for Inactive)
REMARK    1  A    between atoms: C_2  and  C_3
REMARK                            x       y       z     vdW  Elec       q    Type
REMARK                         _______ _______ _______ _____ _____    ______ ____
ROOT
ATOM      1  C   UNL     1       3.775   0.069  -0.073  0.00  0.00    +0.000 C 
ATOM      2  C   UNL     1       4.278  -0.773   1.097  0.00  0.00    +0.000 C 
ATOM      3  O   UNL     1       5.634  -0.418   1.378  0.00  0.00    +0.000 OA
ATOM      4  N   UNL     1       5.670   0.474   2.464  0.00  0.00    +0.000 NA
ATOM      5  C   UNL     1       5.333   1.679   2.136  0.00  0.00    +0.000 C 
ATOM      6  C   UNL     1       4.897   2.216   0.822  0.00  0.00    +0.000 C 
ATOM      7  C   UNL     1       4.219   1.522  -0.104  0.00  0.00    +0.000 C 
ENDROOT
BRANCH   1   9
ATOM      8  N   UNL     1       0.995   0.069  -0.073  0.00  0.00    +0.000 NA
ATOM      9  C   UNL     1       2.255   0.069  -0.073  0.00  0.00    +0.000 C 
ENDBRANCH   1   9
TORSDOF 1
