REMARK  Name = ligand_9224814
REMARK  2 active torsions:
REMARK  status: ('A' for Active; 'I' for Inactive)
REMARK    1  A    between atoms: N_1  and  C_2
REMARK    2  A    between atoms: C_2  and  C_3
REMARK                            x       y       z     vdW  Elec       q    Type
REMARK                         _______ _______ _______ _____ _____    ______ ____
ROOT
ATOM      1  C   UNL     1       3.118   1.129   0.656  0.00  0.00    +0.000 C 
ATOM      2  O   UNL     1       2.769   2.270  -0.144  0.00  0.00    +0.000 OA
ATOM      3  C   UNL     1       3.370   2.262  -1.442  0.00  0.00    +0.000 C 
ATOM      4  C   UNL     1       4.897   2.172  -1.372  0.00  0.00    +0.000 C 
ATOM      5  N   UNL     1       5.338   1.050  -0.542  0.00  0.00    +0.000 N 
ATOM      6  C   UNL     1       4.627   0.800   0.608  0.00  0.00    +0.000 C 
ATOM      7  N   UNL     1       5.213   0.253   1.620  0.00  0.00    +0.000 NA
ATOM      8  H   UNL     1       5.443   0.203  -1.095  0.00  0.00    +0.000 HD
ATOM      9  H   UNL     1       6.207   0.164   1.382  0.00  0.00    +0.000 HD
ENDROOT
BRANCH   1  10
ATOM     10  C   UNL     1       2.338  -0.129   0.210  0.00  0.00    +0.000 C 
BRANCH  10  11
ATOM     11  N   UNL     1       0.883   0.063   0.238  0.00  0.00    +0.000 NA
ATOM     12  H   UNL     1       0.430  -0.658  -0.320  0.00  0.00    +0.000 HD
ATOM     13  H   UNL     1       0.664   0.965  -0.189  0.00  0.00    +0.000 HD
ENDBRANCH  10  11
ENDBRANCH   1  10
TORSDOF 2
