REMARK  Name = ligand_9224171
REMARK  3 active torsions:
REMARK  status: ('A' for Active; 'I' for Inactive)
REMARK    1  A    between atoms: N_1  and  C_2
REMARK    2  A    between atoms: C_2  and  C_3
REMARK    3  A    between atoms: N_8  and  O_9
REMARK                            x       y       z     vdW  Elec       q    Type
REMARK                         _______ _______ _______ _____ _____    ______ ____
ROOT
ATOM      1  C   UNL     1       3.035   0.399  -1.361  0.00  0.00    +0.000 C 
ATOM      2  N   UNL     1       2.768   1.642  -1.595  0.00  0.00    +0.000 NA
ATOM      3  C   UNL     1       3.198   2.266  -2.836  0.00  0.00    +0.000 C 
ATOM      4  C   UNL     1       3.815   1.365  -3.892  0.00  0.00    +0.000 C 
ATOM      5  C   UNL     1       3.729  -0.124  -3.644  0.00  0.00    +0.000 C 
ATOM      6  N   UNL     1       3.695  -0.454  -2.234  0.00  0.00    +0.000 N 
ENDROOT
BRANCH   6   7
ATOM      7  O   UNL     1       3.381  -1.806  -2.041  0.00  0.00    +0.000 OA
ATOM      8  H   UNL     1       4.250  -2.244  -2.107  0.00  0.00    +0.000 HD
ENDBRANCH   6   7
BRANCH   1   9
ATOM      9  C   UNL     1       2.583  -0.124   0.023  0.00  0.00    +0.000 C 
BRANCH   9  10
ATOM     10  N   UNL     1       3.252   0.654   1.079  0.00  0.00    +0.000 NA
ATOM     11  H   UNL     1       2.781   0.477   1.961  0.00  0.00    +0.000 HD
ATOM     12  H   UNL     1       3.091   1.642   0.861  0.00  0.00    +0.000 HD
ENDBRANCH   9  10
ENDBRANCH   1   9
TORSDOF 3
