REMARK  Name = ligand_9224683
REMARK  3 active torsions:
REMARK  status: ('A' for Active; 'I' for Inactive)
REMARK    1  A    between atoms: N_1  and  C_2
REMARK    2  A    between atoms: C_2  and  C_3
REMARK    3  A    between atoms: C_7  and  C_8
REMARK                            x       y       z     vdW  Elec       q    Type
REMARK                         _______ _______ _______ _____ _____    ______ ____
ROOT
ATOM      1  C   UNL     1       3.270  -1.278   0.262  0.00  0.00    +0.000 C 
ATOM      2  O   UNL     1       3.061  -2.225  -0.828  0.00  0.00    +0.000 OA
ATOM      3  C   UNL     1       2.947  -3.538  -0.264  0.00  0.00    +0.000 C 
ATOM      4  C   UNL     1       2.714  -3.329   1.181  0.00  0.00    +0.000 C 
ATOM      5  C   UNL     1       2.911  -2.048   1.501  0.00  0.00    +0.000 C 
ENDROOT
BRANCH   5   6
ATOM      6  C   UNL     1       2.835  -1.544   2.847  0.00  0.00    +0.000 C 
ATOM      7  C   UNL     1       3.374  -0.400   3.282  0.00  0.00    +0.000 C 
ENDBRANCH   5   6
BRANCH   1   8
ATOM      8  C   UNL     1       2.395  -0.036  -0.026  0.00  0.00    +0.000 C 
BRANCH   8   9
ATOM      9  N   UNL     1       2.775   0.626  -1.287  0.00  0.00    +0.000 NA
ATOM     10  H   UNL     1       2.051   1.293  -1.546  0.00  0.00    +0.000 HD
ATOM     11  H   UNL     1       2.780  -0.092  -2.015  0.00  0.00    +0.000 HD
ENDBRANCH   8   9
ENDBRANCH   1   8
TORSDOF 3
