REMARK  Name = ligand_9225640
REMARK  4 active torsions:
REMARK  status: ('A' for Active; 'I' for Inactive)
REMARK    1  A    between atoms: N_1  and  C_2
REMARK    2  A    between atoms: C_2  and  C_3
REMARK    3  A    between atoms: C_3  and  C_4
REMARK    4  A    between atoms: C_4  and  O_5
REMARK                            x       y       z     vdW  Elec       q    Type
REMARK                         _______ _______ _______ _____ _____    ______ ____
ROOT
ATOM      1  C   UNL     1       4.498   0.762   1.188  0.00  0.00    +0.000 C 
ATOM      2  C   UNL     1       5.182  -0.394   0.456  0.00  0.00    +0.000 C 
ATOM      3  C   UNL     1       6.612   0.098   0.239  0.00  0.00    +0.000 C 
ATOM      4  C   UNL     1       6.542   1.626   0.242  0.00  0.00    +0.000 C 
ATOM      5  C   UNL     1       5.072   1.980   0.463  0.00  0.00    +0.000 C 
ENDROOT
BRANCH   1   6
ATOM      6  O   UNL     1       4.957   0.800   2.541  0.00  0.00    +0.000 OA
ATOM      7  H   UNL     1       4.428   0.127   3.025  0.00  0.00    +0.000 HD
ENDBRANCH   1   6
BRANCH   1   8
ATOM      8  C   UNL     1       2.963   0.723   1.148  0.00  0.00    +0.000 C 
BRANCH   8   9
ATOM      9  C   UNL     1       2.332  -0.495   1.832  0.00  0.00    +0.000 C 
BRANCH   9  10
ATOM     10  N   UNL     1       2.677  -0.564   3.253  0.00  0.00    +0.000 NA
ATOM     11  H   UNL     1       2.183  -1.351   3.678  0.00  0.00    +0.000 HD
ATOM     12  H   UNL     1       2.312   0.269   3.724  0.00  0.00    +0.000 HD
ENDBRANCH   9  10
ENDBRANCH   8   9
ENDBRANCH   1   8
TORSDOF 4
