REMARK  Name = ligand_9225196
REMARK  2 active torsions:
REMARK  status: ('A' for Active; 'I' for Inactive)
REMARK    1  A    between atoms: N_1  and  C_2
REMARK    2  A    between atoms: C_2  and  C_3
REMARK                            x       y       z     vdW  Elec       q    Type
REMARK                         _______ _______ _______ _____ _____    ______ ____
ROOT
ATOM      1  C   UNL     1       3.129  -1.169   0.545  0.00  0.00    +0.000 C 
ATOM      2  C   UNL     1       4.444  -1.423   0.548  0.00  0.00    +0.000 C 
ATOM      3  C   UNL     1       5.530  -0.601   0.146  0.00  0.00    +0.000 C 
ATOM      4  C   UNL     1       6.608  -1.350   0.338  0.00  0.00    +0.000 C 
ATOM      5  O   UNL     1       6.396  -2.631   0.845  0.00  0.00    +0.000 OA
ATOM      6  C   UNL     1       5.025  -2.722   1.001  0.00  0.00    +0.000 C 
ATOM      7  O   UNL     1       4.419  -3.691   1.422  0.00  0.00    +0.000 OA
ENDROOT
BRANCH   1   8
ATOM      8  C   UNL     1       2.469   0.078   0.061  0.00  0.00    +0.000 C 
BRANCH   8   9
ATOM      9  N   UNL     1       1.723   0.693   1.145  0.00  0.00    +0.000 NA
ATOM     10  H   UNL     1       1.254   1.528   0.796  0.00  0.00    +0.000 HD
ATOM     11  H   UNL     1       2.371   1.014   1.862  0.00  0.00    +0.000 HD
ENDBRANCH   8   9
ENDBRANCH   1   8
TORSDOF 2
