REMARK  Name = ligand_922684
REMARK  2 active torsions:
REMARK  status: ('A' for Active; 'I' for Inactive)
REMARK    1  A    between atoms: C_1  and  C_2
REMARK    2  A    between atoms: C_8  and  C_9
REMARK                            x       y       z     vdW  Elec       q    Type
REMARK                         _______ _______ _______ _____ _____    ______ ____
ROOT
ATOM      1  C   UNL     1       0.995  -0.178  -0.028  0.00  0.00    +0.000 C 
ATOM      2  C   UNL     1       2.504  -0.048  -0.075  0.00  0.00    +0.000 C 
ATOM      3  C   UNL     1       3.167  -1.204  -0.760  0.00  0.00    +0.000 C 
ATOM      4  N   UNL     1       4.176  -0.904  -1.511  0.00  0.00    +0.000 NA
ATOM      5  N   UNL     1       4.271   0.466  -1.510  0.00  0.00    +0.000 N 
ATOM      6  C   UNL     1       5.337   1.163  -2.012  0.00  0.00    +0.000 C 
ATOM      7  N   UNL     1       6.391   0.648  -2.546  0.00  0.00    +0.000 NA
ATOM      8  C   UNL     1       3.097   1.097  -0.908  0.00  0.00    +0.000 C 
ATOM      9  C   UNL     1       2.189   1.636  -2.012  0.00  0.00    +0.000 C 
ATOM     10  H   UNL     1       6.226  -0.369  -2.505  0.00  0.00    +0.000 HD
ENDROOT
TORSDOF 0
