REMARK  Name = ligand_9226461
REMARK  6 active torsions:
REMARK  status: ('A' for Active; 'I' for Inactive)
REMARK    1  A    between atoms: N_1  and  C_2
REMARK    2  A    between atoms: C_2  and  C_3
REMARK    3  A    between atoms: C_3  and  C_4
REMARK    4  A    between atoms: C_4  and  C_6
REMARK    5  A    between atoms: C_6  and  C_7
REMARK    6  A    between atoms: C_7  and  O_8
REMARK                            x       y       z     vdW  Elec       q    Type
REMARK                         _______ _______ _______ _____ _____    ______ ____
ROOT
ATOM      1  C   UNL     1       4.284  -0.030  -0.370  0.00  0.00    +0.000 C 
ATOM      2  C   UNL     1       5.467  -0.079  -1.006  0.00  0.00    +0.000 C 
ENDROOT
BRANCH   1   3
ATOM      3  C   UNL     1       2.909  -0.078  -0.989  0.00  0.00    +0.000 C 
BRANCH   3   4
ATOM      4  C   UNL     1       1.784   0.003   0.063  0.00  0.00    +0.000 C 
BRANCH   4   5
ATOM      5  N   UNL     1       1.843   1.237   0.847  0.00  0.00    +0.000 NA
ATOM      6  H   UNL     1       1.117   1.220   1.562  0.00  0.00    +0.000 HD
ATOM      7  H   UNL     1       1.635   2.035   0.248  0.00  0.00    +0.000 HD
ENDBRANCH   4   5
ENDBRANCH   3   4
ENDBRANCH   1   3
BRANCH   1   8
ATOM      8  C   UNL     1       5.708  -0.238  -2.481  0.00  0.00    +0.000 C 
BRANCH   8   9
ATOM      9  C   UNL     1       5.971   1.041  -3.269  0.00  0.00    +0.000 C 
ATOM     10  O   UNL     1       6.352   1.029  -4.432  0.00  0.00    +0.000 OA
BRANCH   9  11
ATOM     11  O   UNL     1       5.735   2.202  -2.620  0.00  0.00    +0.000 OA
ATOM     12  H   UNL     1       5.410   2.091  -1.706  0.00  0.00    +0.000 HD
ENDBRANCH   9  11
ENDBRANCH   8   9
ENDBRANCH   1   8
TORSDOF 6
