REMARK  Name = ligand_9226419
REMARK  7 active torsions:
REMARK  status: ('A' for Active; 'I' for Inactive)
REMARK    1  A    between atoms: N_1  and  C_2
REMARK    2  A    between atoms: C_2  and  C_3
REMARK    3  A    between atoms: C_3  and  C_4
REMARK    4  A    between atoms: C_4  and  C_5
REMARK    5  A    between atoms: C_5  and  C_6
REMARK    6  A    between atoms: C_6  and  C_7
REMARK    7  A    between atoms: N_8  and  O_9
REMARK                            x       y       z     vdW  Elec       q    Type
REMARK                         _______ _______ _______ _____ _____    ______ ____
ROOT
ATOM      1  C   UNL     1       4.479  -1.398  -0.103  0.00  0.00    +0.000 C 
ENDROOT
BRANCH   1   2
ATOM      2  C   UNL     1       2.949  -1.321  -0.063  0.00  0.00    +0.000 C 
BRANCH   2   3
ATOM      3  C   UNL     1       2.455   0.113   0.118  0.00  0.00    +0.000 C 
BRANCH   3   4
ATOM      4  N   UNL     1       0.997   0.132   0.109  0.00  0.00    +0.000 NA
ATOM      5  H   UNL     1       0.665   1.080   0.278  0.00  0.00    +0.000 HD
ATOM      6  H   UNL     1       0.639  -0.441   0.872  0.00  0.00    +0.000 HD
ENDBRANCH   3   4
ENDBRANCH   2   3
ENDBRANCH   1   2
BRANCH   1   7
ATOM      7  C   UNL     1       4.999  -2.830  -0.276  0.00  0.00    +0.000 C 
BRANCH   7   8
ATOM      8  C   UNL     1       4.571  -3.465  -1.597  0.00  0.00    +0.000 C 
BRANCH   8   9
ATOM      9  C   UNL     1       5.092  -4.868  -1.712  0.00  0.00    +0.000 C 
ATOM     10  N   UNL     1       4.270  -5.862  -1.817  0.00  0.00    +0.000 NA
BRANCH  10  11
ATOM     11  O   UNL     1       4.999  -7.050  -1.933  0.00  0.00    +0.000 OA
ATOM     12  H   UNL     1       4.293  -7.715  -2.034  0.00  0.00    +0.000 HD
ENDBRANCH  10  11
ENDBRANCH   8   9
ENDBRANCH   7   8
ENDBRANCH   1   7
TORSDOF 7
