REMARK  Name = ligand_9226699
REMARK  5 active torsions:
REMARK  status: ('A' for Active; 'I' for Inactive)
REMARK    1  A    between atoms: N_1  and  C_2
REMARK    2  A    between atoms: C_2  and  C_3
REMARK    3  A    between atoms: C_2  and  C_6
REMARK    4  A    between atoms: C_3  and  C_4
REMARK    5  A    between atoms: N_8  and  O_9
REMARK                            x       y       z     vdW  Elec       q    Type
REMARK                         _______ _______ _______ _____ _____    ______ ____
ROOT
ATOM      1  C   UNL     1       2.524   0.067   0.103  0.00  0.00    +0.000 C 
ENDROOT
BRANCH   1   2
ATOM      2  C   UNL     1       3.067   0.544   1.463  0.00  0.00    +0.000 C 
ATOM      3  O   UNL     1       4.068   1.238   1.609  0.00  0.00    +0.000 OA
ATOM      4  N   UNL     1       2.348   0.067   2.538  0.00  0.00    +0.000 N 
ATOM      5  H   UNL     1       1.395  -0.267   2.404  0.00  0.00    +0.000 HD
BRANCH   4   6
ATOM      6  O   UNL     1       2.709   0.569   3.809  0.00  0.00    +0.000 OA
ATOM      7  H   UNL     1       3.513   1.096   3.606  0.00  0.00    +0.000 HD
ENDBRANCH   4   6
ENDBRANCH   1   2
BRANCH   1   8
ATOM      8  N   UNL     1       1.037   0.002   0.154  0.00  0.00    +0.000 NA
ATOM      9  H   UNL     1       0.707  -0.329  -0.758  0.00  0.00    +0.000 HD
ATOM     10  H   UNL     1       0.672   0.959   0.218  0.00  0.00    +0.000 HD
ENDBRANCH   1   8
BRANCH   1  11
ATOM     11  C   UNL     1       3.051   0.977  -1.023  0.00  0.00    +0.000 C 
BRANCH  11  12
ATOM     12  C   UNL     1       2.585   0.484  -2.384  0.00  0.00    +0.000 C 
ATOM     13  C   UNL     1       2.185   0.061  -3.551  0.00  0.00    +0.000 C 
ENDBRANCH  11  12
ENDBRANCH   1  11
TORSDOF 5
