REMARK  Name = ligand_9226170
REMARK  4 active torsions:
REMARK  status: ('A' for Active; 'I' for Inactive)
REMARK    1  A    between atoms: N_1  and  C_2
REMARK    2  A    between atoms: C_2  and  C_3
REMARK    3  A    between atoms: C_2  and  C_6
REMARK    4  A    between atoms: C_3  and  C_4
REMARK                            x       y       z     vdW  Elec       q    Type
REMARK                         _______ _______ _______ _____ _____    ______ ____
ROOT
ATOM      1  C   UNL     1       2.254   0.001  -0.063  0.00  0.00    +0.000 C 
ENDROOT
BRANCH   1   2
ATOM      2  C   UNL     1       2.826   0.909   1.040  0.00  0.00    +0.000 C 
ATOM      3  C   UNL     1       2.377   0.690   2.494  0.00  0.00    +0.000 C 
ATOM      4  C   UNL     1       2.178   2.204   2.497  0.00  0.00    +0.000 C 
ATOM      5  O   UNL     1       2.230   2.246   1.044  0.00  0.00    +0.000 OA
ENDBRANCH   1   2
BRANCH   1   6
ATOM      6  N   UNL     1       0.779   0.041  -0.096  0.00  0.00    +0.000 NA
ATOM      7  H   UNL     1       0.452  -0.472  -0.916  0.00  0.00    +0.000 HD
ATOM      8  H   UNL     1       0.505   1.011  -0.261  0.00  0.00    +0.000 HD
ENDBRANCH   1   6
BRANCH   1   9
ATOM      9  C   UNL     1       2.876   0.417  -1.419  0.00  0.00    +0.000 C 
BRANCH   9  10
ATOM     10  C   UNL     1       2.493  -0.491  -2.560  0.00  0.00    +0.000 C 
ATOM     11  C   UNL     1       1.886  -0.073  -3.674  0.00  0.00    +0.000 C 
ENDBRANCH   9  10
ENDBRANCH   1   9
TORSDOF 4
