REMARK  Name = ligand_9227004
REMARK  6 active torsions:
REMARK  status: ('A' for Active; 'I' for Inactive)
REMARK    1  A    between atoms: N_1  and  C_2
REMARK    2  A    between atoms: C_2  and  C_3
REMARK    3  A    between atoms: C_4  and  C_5
REMARK    4  A    between atoms: C_5  and  O_6
REMARK    5  A    between atoms: C_5  and  C_7
REMARK    6  A    between atoms: N_8  and  O_9
REMARK                            x       y       z     vdW  Elec       q    Type
REMARK                         _______ _______ _______ _____ _____    ______ ____
ROOT
ATOM      1  C   UNL     1       4.793  -1.717  -2.623  0.00  0.00    +0.000 C 
ENDROOT
BRANCH   1   3
ATOM      2  C   UNL     1       2.982  -0.700  -1.195  0.00  0.00    +0.000 C 
ATOM      3  C   UNL     1       4.285  -0.909  -1.457  0.00  0.00    +0.000 C 
BRANCH   2   4
ATOM      4  C   UNL     1       2.451   0.092  -0.047  0.00  0.00    +0.000 C 
BRANCH   4   5
ATOM      5  N   UNL     1       1.615  -0.757   0.785  0.00  0.00    +0.000 NA
ATOM      6  H   UNL     1       1.251  -0.209   1.562  0.00  0.00    +0.000 HD
ATOM      7  H   UNL     1       2.192  -1.487   1.200  0.00  0.00    +0.000 HD
ENDBRANCH   4   5
ENDBRANCH   2   4
ENDBRANCH   1   3
BRANCH   1   8
ATOM      8  O   UNL     1       3.876  -1.645  -3.702  0.00  0.00    +0.000 OA
ATOM      9  H   UNL     1       3.895  -0.713  -3.993  0.00  0.00    +0.000 HD
ENDBRANCH   1   8
BRANCH   1  10
ATOM     10  C   UNL     1       6.170  -1.233  -3.060  0.00  0.00    +0.000 C 
ATOM     11  N   UNL     1       6.316  -0.293  -3.942  0.00  0.00    +0.000 NA
BRANCH  11  12
ATOM     12  O   UNL     1       7.685  -0.080  -4.148  0.00  0.00    +0.000 OA
ATOM     13  H   UNL     1       7.692   0.583  -4.864  0.00  0.00    +0.000 HD
ENDBRANCH  11  12
ENDBRANCH   1  10
TORSDOF 6
