REMARK  Name = ligand_9227160
REMARK  8 active torsions:
REMARK  status: ('A' for Active; 'I' for Inactive)
REMARK    1  A    between atoms: N_1  and  C_2
REMARK    2  A    between atoms: C_2  and  C_3
REMARK    3  A    between atoms: C_3  and  C_4
REMARK    4  A    between atoms: C_4  and  N_5
REMARK    5  A    between atoms: C_4  and  C_6
REMARK    6  A    between atoms: C_6  and  C_7
REMARK    7  A    between atoms: C_7  and  C_8
REMARK    8  A    between atoms: C_8  and  O_9
REMARK                            x       y       z     vdW  Elec       q    Type
REMARK                         _______ _______ _______ _____ _____    ______ ____
ROOT
ATOM      1  C   UNL     1       4.464   1.067   0.849  0.00  0.00    +0.000 C 
ENDROOT
BRANCH   1   2
ATOM      2  N   UNL     1       5.035   1.267  -0.487  0.00  0.00    +0.000 NA
ATOM      3  H   UNL     1       4.636   2.101  -0.918  0.00  0.00    +0.000 HD
ATOM      4  H   UNL     1       4.805   0.486  -1.098  0.00  0.00    +0.000 HD
ENDBRANCH   1   2
BRANCH   1   5
ATOM      5  C   UNL     1       2.923   1.033   0.812  0.00  0.00    +0.000 C 
BRANCH   5   6
ATOM      6  C   UNL     1       2.344  -0.102  -0.033  0.00  0.00    +0.000 C 
BRANCH   6   7
ATOM      7  N   UNL     1       0.885  -0.073   0.037  0.00  0.00    +0.000 NA
ATOM      8  H   UNL     1       0.502  -0.809  -0.557  0.00  0.00    +0.000 HD
ATOM      9  H   UNL     1       0.537   0.807  -0.340  0.00  0.00    +0.000 HD
ENDBRANCH   6   7
ENDBRANCH   5   6
ENDBRANCH   1   5
BRANCH   1  10
ATOM     10  C   UNL     1       4.995   2.204   1.746  0.00  0.00    +0.000 C 
BRANCH  10  11
ATOM     11  C   UNL     1       4.579   2.067   3.212  0.00  0.00    +0.000 C 
BRANCH  11  12
ATOM     12  C   UNL     1       5.126   3.202   4.069  0.00  0.00    +0.000 C 
BRANCH  12  13
ATOM     13  O   UNL     1       4.694   3.031   5.413  0.00  0.00    +0.000 OA
ATOM     14  H   UNL     1       3.722   2.985   5.407  0.00  0.00    +0.000 HD
ENDBRANCH  12  13
ENDBRANCH  11  12
ENDBRANCH  10  11
ENDBRANCH   1  10
TORSDOF 8
