REMARK  Name = ligand_9227166
REMARK  5 active torsions:
REMARK  status: ('A' for Active; 'I' for Inactive)
REMARK    1  A    between atoms: N_1  and  C_2
REMARK    2  A    between atoms: C_2  and  C_3
REMARK    3  A    between atoms: C_3  and  C_4
REMARK    4  A    between atoms: C_6  and  C_7
REMARK    5  A    between atoms: N_8  and  O_9
REMARK                            x       y       z     vdW  Elec       q    Type
REMARK                         _______ _______ _______ _____ _____    ______ ____
ROOT
ATOM      1  C   UNL     1       2.474   0.104  -0.005  0.00  0.00    +0.000 C 
ATOM      2  C   UNL     1       3.169   0.646   1.017  0.00  0.00    +0.000 C 
ENDROOT
BRANCH   1   3
ATOM      3  N   UNL     1       1.096   0.120   0.025  0.00  0.00    +0.000 N 
ATOM      4  H   UNL     1       0.529  -0.276  -0.723  0.00  0.00    +0.000 HD
ATOM      5  H   UNL     1       0.597   0.534   0.806  0.00  0.00    +0.000 HD
ENDBRANCH   1   3
BRANCH   2   6
ATOM      6  C   UNL     1       4.644   0.686   1.093  0.00  0.00    +0.000 C 
ATOM      7  N   UNL     1       5.256   1.219   2.100  0.00  0.00    +0.000 NA
BRANCH   7   8
ATOM      8  O   UNL     1       6.636   1.110   1.894  0.00  0.00    +0.000 OA
ATOM      9  H   UNL     1       7.000   1.534   2.694  0.00  0.00    +0.000 HD
ENDBRANCH   7   8
ENDBRANCH   2   6
BRANCH   1  10
ATOM     10  C   UNL     1       3.199  -0.527  -1.197  0.00  0.00    +0.000 C 
BRANCH  10  11
ATOM     11  C   UNL     1       2.211  -1.068  -2.218  0.00  0.00    +0.000 C 
ATOM     12  N   UNL     1       1.392  -1.517  -3.065  0.00  0.00    +0.000 NA
ENDBRANCH  10  11
ENDBRANCH   1  10
TORSDOF 5
