REMARK  Name = ligand_9228218
REMARK  5 active torsions:
REMARK  status: ('A' for Active; 'I' for Inactive)
REMARK    1  A    between atoms: N_1  and  C_2
REMARK    2  A    between atoms: C_2  and  C_3
REMARK    3  A    between atoms: C_2  and  C_8
REMARK    4  A    between atoms: C_3  and  N_4
REMARK    5  A    between atoms: N_4  and  O_5
REMARK                            x       y       z     vdW  Elec       q    Type
REMARK                         _______ _______ _______ _____ _____    ______ ____
ROOT
ATOM      1  C   UNL     1       2.957  -0.145   1.367  0.00  0.00    +0.000 C 
ENDROOT
BRANCH   1   2
ATOM      2  N   UNL     1       2.629   1.025   2.191  0.00  0.00    +0.000 N 
ATOM      3  C   UNL     1       1.418   1.169   2.824  0.00  0.00    +0.000 C 
ATOM      4  N   UNL     1       0.808   2.268   3.086  0.00  0.00    +0.000 NA
ATOM      5  H   UNL     1       1.411   3.021   2.714  0.00  0.00    +0.000 HD
BRANCH   2   6
ATOM      6  O   UNL     1       3.143   2.232   1.693  0.00  0.00    +0.000 OA
ATOM      7  H   UNL     1       4.076   2.212   1.979  0.00  0.00    +0.000 HD
ENDBRANCH   2   6
ENDBRANCH   1   2
BRANCH   1   8
ATOM      8  C   UNL     1       2.424  -0.028  -0.084  0.00  0.00    +0.000 C 
BRANCH   8   9
ATOM      9  N   UNL     1       0.965   0.118  -0.164  0.00  0.00    +0.000 NA
ATOM     10  H   UNL     1       0.671   0.864   0.469  0.00  0.00    +0.000 HD
ATOM     11  H   UNL     1       0.514  -0.733   0.165  0.00  0.00    +0.000 HD
ENDBRANCH   8   9
BRANCH   8  12
ATOM     12  C   UNL     1       2.772  -1.262  -0.902  0.00  0.00    +0.000 C 
ATOM     13  C   UNL     1       3.070  -2.320  -1.603  0.00  0.00    +0.000 C 
ENDBRANCH   8  12
ENDBRANCH   1   8
TORSDOF 5
