REMARK  Name = ligand_9229705
REMARK  1 active torsions:
REMARK  status: ('A' for Active; 'I' for Inactive)
REMARK    1  A    between atoms: C_2  and  C_4
REMARK                            x       y       z     vdW  Elec       q    Type
REMARK                         _______ _______ _______ _____ _____    ______ ____
ROOT
ATOM      1  N   UNL     1       2.014  -1.240  -0.059  0.00  0.00    +0.000 N 
ATOM      2  C   UNL     1       2.293   0.079   0.126  0.00  0.00    +0.000 C 
ATOM      3  N   UNL     1       1.825   0.709   1.152  0.00  0.00    +0.000 NA
ATOM      4  H   UNL     1       1.801  -1.785   0.768  0.00  0.00    +0.000 HD
ATOM      5  H   UNL     1       2.625  -1.738  -0.706  0.00  0.00    +0.000 HD
ATOM      6  H   UNL     1       1.228   0.078   1.692  0.00  0.00    +0.000 HD
ENDROOT
BRANCH   2   7
ATOM      7  C   UNL     1       3.192   0.845  -0.844  0.00  0.00    +0.000 C 
ATOM      8  C   UNL     1       3.134   0.296  -2.267  0.00  0.00    +0.000 C 
ATOM      9  O   UNL     1       3.754  -0.994  -2.419  0.00  0.00    +0.000 OA
ATOM     10  C   UNL     1       4.942  -1.146  -1.757  0.00  0.00    +0.000 C 
ATOM     11  C   UNL     1       5.409  -0.328  -0.810  0.00  0.00    +0.000 C 
ATOM     12  C   UNL     1       4.638   0.866  -0.341  0.00  0.00    +0.000 C 
ENDBRANCH   2   7
TORSDOF 1
