REMARK  Name = ligand_9229994
REMARK  5 active torsions:
REMARK  status: ('A' for Active; 'I' for Inactive)
REMARK    1  A    between atoms: N_3  and  C_4
REMARK    2  A    between atoms: C_4  and  C_5
REMARK    3  A    between atoms: C_5  and  C_6
REMARK    4  A    between atoms: C_6  and  C_7
REMARK    5  A    between atoms: C_7  and  C_8
REMARK                            x       y       z     vdW  Elec       q    Type
REMARK                         _______ _______ _______ _____ _____    ______ ____
ROOT
ATOM      1  C   UNL     1       4.569  -0.452   1.080  0.00  0.00    +0.000 C 
ENDROOT
BRANCH   1   4
ATOM      2  N   UNL     1       1.066   0.527   1.471  0.00  0.00    +0.000 NA
ATOM      3  C   UNL     1       2.348   0.573   1.504  0.00  0.00    +0.000 C 
ATOM      4  N   UNL     1       3.128  -0.434   1.057  0.00  0.00    +0.000 N 
ATOM      5  H   UNL     1       0.686   1.401   1.850  0.00  0.00    +0.000 HD
ATOM      6  H   UNL     1       2.638  -1.254   0.715  0.00  0.00    +0.000 HD
ENDBRANCH   1   4
BRANCH   1   7
ATOM      7  C   UNL     1       5.074  -1.044   2.395  0.00  0.00    +0.000 C 
BRANCH   7   8
ATOM      8  C   UNL     1       6.602  -1.061   2.430  0.00  0.00    +0.000 C 
BRANCH   8   9
ATOM      9  C   UNL     1       7.136  -1.644   3.735  0.00  0.00    +0.000 C 
BRANCH   9  10
ATOM     10  C   UNL     1       8.646  -1.658   3.771  0.00  0.00    +0.000 C 
ATOM     11  O   UNL     1       9.366  -1.251   2.866  0.00  0.00    +0.000 OA
ENDBRANCH   9  10
ENDBRANCH   8   9
ENDBRANCH   7   8
ENDBRANCH   1   7
TORSDOF 5
