REMARK  Name = ligand_9229865
REMARK  2 active torsions:
REMARK  status: ('A' for Active; 'I' for Inactive)
REMARK    1  A    between atoms: C_2  and  C_4
REMARK    2  A    between atoms: C_4  and  C_5
REMARK                            x       y       z     vdW  Elec       q    Type
REMARK                         _______ _______ _______ _____ _____    ______ ____
ROOT
ATOM      1  N   UNL     1       2.048   1.291  -0.477  0.00  0.00    +0.000 N 
ATOM      2  C   UNL     1       2.389   0.025  -0.122  0.00  0.00    +0.000 C 
ATOM      3  N   UNL     1       2.084  -0.995  -0.848  0.00  0.00    +0.000 NA
ATOM      4  H   UNL     1       1.808   1.451  -1.448  0.00  0.00    +0.000 HD
ATOM      5  H   UNL     1       2.610   2.042  -0.082  0.00  0.00    +0.000 HD
ATOM      6  H   UNL     1       1.535  -0.692  -1.655  0.00  0.00    +0.000 HD
ENDROOT
BRANCH   2   7
ATOM      7  C   UNL     1       3.170  -0.204   1.152  0.00  0.00    +0.000 C 
BRANCH   7   8
ATOM      8  C   UNL     1       4.672  -0.172   0.934  0.00  0.00    +0.000 C 
ATOM      9  C   UNL     1       5.535  -0.381   2.184  0.00  0.00    +0.000 C 
ATOM     10  C   UNL     1       5.999   1.051   1.880  0.00  0.00    +0.000 C 
ATOM     11  O   UNL     1       6.768   1.856   2.349  0.00  0.00    +0.000 OA
ATOM     12  O   UNL     1       5.167   1.197   0.816  0.00  0.00    +0.000 OA
ENDBRANCH   7   8
ENDBRANCH   2   7
TORSDOF 2
