REMARK  Name = ligand_9229996
REMARK  5 active torsions:
REMARK  status: ('A' for Active; 'I' for Inactive)
REMARK    1  A    between atoms: C_2  and  C_4
REMARK    2  A    between atoms: C_5  and  C_6
REMARK    3  A    between atoms: C_6  and  C_7
REMARK    4  A    between atoms: C_7  and  C_8
REMARK    5  A    between atoms: C_8  and  O_9
REMARK                            x       y       z     vdW  Elec       q    Type
REMARK                         _______ _______ _______ _____ _____    ______ ____
ROOT
ATOM      1  C   UNL     1       3.626   0.311   1.354  0.00  0.00    +0.000 C 
ATOM      2  C   UNL     1       4.482  -0.697   1.135  0.00  0.00    +0.000 C 
ENDROOT
BRANCH   1   4
ATOM      3  N   UNL     1       2.864   0.597  -1.024  0.00  0.00    +0.000 N 
ATOM      4  C   UNL     1       2.839   0.979   0.285  0.00  0.00    +0.000 C 
ATOM      5  N   UNL     1       2.084   1.966   0.645  0.00  0.00    +0.000 NA
ATOM      6  H   UNL     1       2.478   1.212  -1.724  0.00  0.00    +0.000 HD
ATOM      7  H   UNL     1       3.613   0.002  -1.348  0.00  0.00    +0.000 HD
ATOM      8  H   UNL     1       1.581   2.326  -0.170  0.00  0.00    +0.000 HD
ENDBRANCH   1   4
BRANCH   2   9
ATOM      9  C   UNL     1       5.253  -1.381   2.230  0.00  0.00    +0.000 C 
BRANCH   9  10
ATOM     10  C   UNL     1       6.759  -1.251   2.011  0.00  0.00    +0.000 C 
BRANCH  10  11
ATOM     11  C   UNL     1       7.542  -1.970   3.101  0.00  0.00    +0.000 C 
BRANCH  11  12
ATOM     12  O   UNL     1       8.937  -1.818   2.875  0.00  0.00    +0.000 OA
ATOM     13  H   UNL     1       9.141  -2.216   2.011  0.00  0.00    +0.000 HD
ENDBRANCH  11  12
ENDBRANCH  10  11
ENDBRANCH   9  10
ENDBRANCH   2   9
TORSDOF 5
