REMARK  Name = ligand_9230752
REMARK  3 active torsions:
REMARK  status: ('A' for Active; 'I' for Inactive)
REMARK    1  A    between atoms: N_3  and  O_4
REMARK    2  A    between atoms: O_4  and  C_5
REMARK    3  A    between atoms: C_7  and  C_8
REMARK                            x       y       z     vdW  Elec       q    Type
REMARK                         _______ _______ _______ _____ _____    ______ ____
ROOT
ATOM      1  O   UNL     1       3.688   1.967  -0.272  0.00  0.00    +0.000 OA
ENDROOT
BRANCH   1   4
ATOM      2  N   UNL     1       5.270  -0.953   0.772  0.00  0.00    +0.000 NA
ATOM      3  C   UNL     1       5.070   0.255   0.378  0.00  0.00    +0.000 C 
ATOM      4  N   UNL     1       4.085   0.643  -0.473  0.00  0.00    +0.000 N 
ATOM      5  H   UNL     1       6.085  -0.969   1.396  0.00  0.00    +0.000 HD
ATOM      6  H   UNL     1       3.326  -0.026  -0.578  0.00  0.00    +0.000 HD
ENDBRANCH   1   4
BRANCH   1   7
ATOM      7  C   UNL     1       3.803   2.660  -1.539  0.00  0.00    +0.000 C 
ATOM      8  C   UNL     1       5.194   2.747  -2.116  0.00  0.00    +0.000 C 
ATOM      9  C   UNL     1       4.563   3.971  -1.531  0.00  0.00    +0.000 C 
BRANCH   9  10
ATOM     10  C   UNL     1       2.561   2.736  -2.256  0.00  0.00    +0.000 C 
ATOM     11  C   UNL     1       1.468   2.927  -2.708  0.00  0.00    +0.000 C 
ENDBRANCH   9  10
ENDBRANCH   1   7
TORSDOF 3
