REMARK  Name = ligand_9230895
REMARK  5 active torsions:
REMARK  status: ('A' for Active; 'I' for Inactive)
REMARK    1  A    between atoms: N_3  and  O_4
REMARK    2  A    between atoms: O_4  and  C_5
REMARK    3  A    between atoms: C_5  and  O_6
REMARK    4  A    between atoms: O_6  and  C_7
REMARK    5  A    between atoms: C_7  and  C_8
REMARK                            x       y       z     vdW  Elec       q    Type
REMARK                         _______ _______ _______ _____ _____    ______ ____
ROOT
ATOM      1  O   UNL     1       4.340   0.479  -1.021  0.00  0.00    +0.000 OA
ENDROOT
BRANCH   1   4
ATOM      2  N   UNL     1       1.007  -0.552  -1.664  0.00  0.00    +0.000 NA
ATOM      3  C   UNL     1       2.284  -0.535  -1.606  0.00  0.00    +0.000 C 
ATOM      4  N   UNL     1       2.956   0.509  -1.070  0.00  0.00    +0.000 N 
ATOM      5  H   UNL     1       0.678  -1.414  -2.117  0.00  0.00    +0.000 HD
ATOM      6  H   UNL     1       2.441   1.278  -0.658  0.00  0.00    +0.000 HD
ENDBRANCH   1   4
BRANCH   1   7
ATOM      7  C   UNL     1       4.839   1.102  -2.216  0.00  0.00    +0.000 C 
BRANCH   7   8
ATOM      8  O   UNL     1       6.267   1.123  -2.250  0.00  0.00    +0.000 OA
BRANCH   8   9
ATOM      9  C   UNL     1       6.799  -0.199  -2.210  0.00  0.00    +0.000 C 
BRANCH   9  10
ATOM     10  C   UNL     1       8.317  -0.141  -2.245  0.00  0.00    +0.000 C 
ATOM     11  C   UNL     1       9.620  -0.091  -2.275  0.00  0.00    +0.000 C 
ENDBRANCH   9  10
ENDBRANCH   8   9
ENDBRANCH   7   8
ENDBRANCH   1   7
TORSDOF 5
