REMARK  Name = ligand_9230221
REMARK  5 active torsions:
REMARK  status: ('A' for Active; 'I' for Inactive)
REMARK    1  A    between atoms: C_2  and  C_4
REMARK    2  A    between atoms: C_4  and  C_5
REMARK    3  A    between atoms: C_5  and  C_6
REMARK    4  A    between atoms: C_6  and  C_8
REMARK    5  A    between atoms: C_8  and  O_9
REMARK                            x       y       z     vdW  Elec       q    Type
REMARK                         _______ _______ _______ _____ _____    ______ ____
ROOT
ATOM      1  C   UNL     1       3.243   1.022  -0.923  0.00  0.00    +0.000 C 
ENDROOT
BRANCH   1   3
ATOM      2  N   UNL     1       1.284  -0.407  -0.424  0.00  0.00    +0.000 N 
ATOM      3  C   UNL     1       2.495   0.054  -0.019  0.00  0.00    +0.000 C 
ATOM      4  N   UNL     1       2.999  -0.296   1.120  0.00  0.00    +0.000 NA
ATOM      5  H   UNL     1       0.689  -0.926   0.205  0.00  0.00    +0.000 HD
ATOM      6  H   UNL     1       0.834  -0.001  -1.235  0.00  0.00    +0.000 HD
ATOM      7  H   UNL     1       2.367  -0.935   1.600  0.00  0.00    +0.000 HD
ENDBRANCH   1   3
BRANCH   1   8
ATOM      8  C   UNL     1       4.752   0.886  -0.801  0.00  0.00    +0.000 C 
BRANCH   8   9
ATOM      9  C   UNL     1       5.482   1.833  -1.731  0.00  0.00    +0.000 C 
ATOM     10  O   UNL     1       4.899   2.608  -2.492  0.00  0.00    +0.000 OA
BRANCH   9  11
ATOM     11  C   UNL     1       7.005   1.737  -1.717  0.00  0.00    +0.000 C 
BRANCH  11  12
ATOM     12  O   UNL     1       7.626   2.659  -2.598  0.00  0.00    +0.000 OA
ATOM     13  H   UNL     1       7.026   2.755  -3.363  0.00  0.00    +0.000 HD
ENDBRANCH  11  12
ENDBRANCH   9  11
ENDBRANCH   8   9
ENDBRANCH   1   8
TORSDOF 5
