REMARK  Name = ligand_9230150
REMARK  3 active torsions:
REMARK  status: ('A' for Active; 'I' for Inactive)
REMARK    1  A    between atoms: N_3  and  C_4
REMARK    2  A    between atoms: C_5  and  C_6
REMARK    3  A    between atoms: C_5  and  C_8
REMARK                            x       y       z     vdW  Elec       q    Type
REMARK                         _______ _______ _______ _____ _____    ______ ____
ROOT
ATOM      1  C   UNL     1       4.405  -0.851  -1.076  0.00  0.00    +0.000 C 
ATOM      2  C   UNL     1       5.121  -1.571  -1.953  0.00  0.00    +0.000 C 
ENDROOT
BRANCH   1   5
ATOM      3  N   UNL     1       2.760   0.721   0.845  0.00  0.00    +0.000 NA
ATOM      4  C   UNL     1       2.301  -0.041  -0.085  0.00  0.00    +0.000 C 
ATOM      5  N   UNL     1       3.032  -0.768  -0.974  0.00  0.00    +0.000 N 
ATOM      6  H   UNL     1       1.978   1.142   1.360  0.00  0.00    +0.000 HD
ATOM      7  H   UNL     1       2.522  -1.332  -1.662  0.00  0.00    +0.000 HD
ENDBRANCH   1   5
BRANCH   2   8
ATOM      8  C   UNL     1       4.453  -2.411  -2.978  0.00  0.00    +0.000 C 
ATOM      9  O   UNL     1       3.232  -2.499  -3.084  0.00  0.00    +0.000 OA
ENDBRANCH   2   8
BRANCH   2  10
ATOM     10  C   UNL     1       6.641  -1.571  -1.953  0.00  0.00    +0.000 C 
ATOM     11  N   UNL     1       7.902  -1.571  -1.953  0.00  0.00    +0.000 NA
ENDBRANCH   2  10
TORSDOF 3
