REMARK  Name = ligand_92304
REMARK  2 active torsions:
REMARK  status: ('A' for Active; 'I' for Inactive)
REMARK    1  A    between atoms: C_1  and  C_2
REMARK    2  A    between atoms: C_2  and  C_3
REMARK                            x       y       z     vdW  Elec       q    Type
REMARK                         _______ _______ _______ _____ _____    ______ ____
ROOT
ATOM      1  C   UNL     1       1.243  -0.143  -0.243  0.00  0.00    +0.000 C 
ATOM      2  C   UNL     1       2.657   0.235   0.225  0.00  0.00    +0.000 C 
ATOM      3  C   UNL     1       2.594   0.558   1.738  0.00  0.00    +0.000 C 
ATOM      4  C   UNL     1       3.137   1.497  -0.553  0.00  0.00    +0.000 C 
ATOM      5  C   UNL     1       4.606   1.779  -0.390  0.00  0.00    +0.000 C 
ATOM      6  C   UNL     1       5.476   0.784  -0.142  0.00  0.00    +0.000 C 
ATOM      7  C   UNL     1       5.085  -0.627  -0.034  0.00  0.00    +0.000 C 
ATOM      8  C   UNL     1       4.385  -1.256  -1.213  0.00  0.00    +0.000 C 
ATOM      9  C   UNL     1       3.609  -0.944   0.045  0.00  0.00    +0.000 C 
ENDROOT
TORSDOF 0
