REMARK  Name = ligand_9231202
REMARK  1 active torsions:
REMARK  status: ('A' for Active; 'I' for Inactive)
REMARK    1  A    between atoms: C_2  and  C_4
REMARK                            x       y       z     vdW  Elec       q    Type
REMARK                         _______ _______ _______ _____ _____    ______ ____
ROOT
ATOM      1  C   UNL     1       3.027  -0.714  -1.106  0.00  0.00    +0.000 C 
ATOM      2  C   UNL     1       2.054  -1.177  -2.203  0.00  0.00    +0.000 C 
ATOM      3  N   UNL     1       1.465  -2.437  -1.688  0.00  0.00    +0.000 NA
ATOM      4  C   UNL     1       2.548  -3.081  -0.920  0.00  0.00    +0.000 C 
ATOM      5  C   UNL     1       2.798  -2.800   0.528  0.00  0.00    +0.000 C 
ATOM      6  C   UNL     1       3.537  -2.012  -0.523  0.00  0.00    +0.000 C 
ATOM      7  H   UNL     1       1.156  -3.013  -2.471  0.00  0.00    +0.000 HD
ENDROOT
BRANCH   1   9
ATOM      8  N   UNL     1       1.063   0.024   0.180  0.00  0.00    +0.000 N 
ATOM      9  C   UNL     1       2.385   0.217  -0.084  0.00  0.00    +0.000 C 
ATOM     10  O   UNL     1       3.025   1.069   0.532  0.00  0.00    +0.000 OA
ATOM     11  H   UNL     1       0.667   0.535   0.957  0.00  0.00    +0.000 HD
ATOM     12  H   UNL     1       0.627  -0.853  -0.089  0.00  0.00    +0.000 HD
ENDBRANCH   1   9
TORSDOF 1
