REMARK  Name = ligand_923122
REMARK  4 active torsions:
REMARK  status: ('A' for Active; 'I' for Inactive)
REMARK    1  A    between atoms: C_1  and  C_2
REMARK    2  A    between atoms: C_4  and  C_5
REMARK    3  A    between atoms: C_5  and  N_6
REMARK    4  A    between atoms: C_7  and  C_8
REMARK                            x       y       z     vdW  Elec       q    Type
REMARK                         _______ _______ _______ _____ _____    ______ ____
ROOT
ATOM      1  C   UNL     1       2.654  -1.615  -2.121  0.00  0.00    +0.000 C 
ATOM      2  C   UNL     1       2.208  -2.872  -1.936  0.00  0.00    +0.000 C 
ENDROOT
BRANCH   1   6
ATOM      3  C   UNL     1       1.016  -0.113   0.041  0.00  0.00    +0.000 C 
ATOM      4  C   UNL     1       2.508  -0.123   0.015  0.00  0.00    +0.000 C 
ATOM      5  N   UNL     1       3.184   0.609  -1.047  0.00  0.00    +0.000 NA
ATOM      6  C   UNL     1       3.318  -0.858  -1.035  0.00  0.00    +0.000 C 
ATOM      7  H   UNL     1       4.043   1.042  -0.706  0.00  0.00    +0.000 HD
ENDBRANCH   1   6
BRANCH   1   8
ATOM      8  N   UNL     1       2.534  -0.913  -3.309  0.00  0.00    +0.000 N 
ATOM      9  H   UNL     1       2.579   0.095  -3.129  0.00  0.00    +0.000 HD
ATOM     10  H   UNL     1       1.730  -1.159  -3.879  0.00  0.00    +0.000 HD
ENDBRANCH   1   8
BRANCH   2  11
ATOM     11  C   UNL     1       1.453  -3.611  -3.029  0.00  0.00    +0.000 C 
ATOM     12  N   UNL     1       0.827  -4.223  -3.936  0.00  0.00    +0.000 NA
ENDBRANCH   2  11
TORSDOF 3
