REMARK  Name = ligand_9232420
REMARK  2 active torsions:
REMARK  status: ('A' for Active; 'I' for Inactive)
REMARK    1  A    between atoms: N_1  and  N_2
REMARK    2  A    between atoms: C_7  and  C_8
REMARK                            x       y       z     vdW  Elec       q    Type
REMARK                         _______ _______ _______ _____ _____    ______ ____
ROOT
ATOM      1  N   UNL     1       2.313   0.041   0.161  0.00  0.00    +0.000 N 
ATOM      2  C   UNL     1       3.144   1.199   0.110  0.00  0.00    +0.000 A 
ATOM      3  O   UNL     1       2.818   2.374   0.133  0.00  0.00    +0.000 OA
ATOM      4  N   UNL     1       4.444   0.671   0.017  0.00  0.00    +0.000 N 
ATOM      5  C   UNL     1       4.381  -0.703   0.018  0.00  0.00    +0.000 A 
ATOM      6  C   UNL     1       3.095  -1.095   0.092  0.00  0.00    +0.000 A 
ATOM      7  H   UNL     1       5.275   1.242  -0.020  0.00  0.00    +0.000 HD
ENDROOT
BRANCH   1   8
ATOM      8  N   UNL     1       0.927   0.077   0.287  0.00  0.00    +0.000 N 
ATOM      9  H   UNL     1       0.670   1.069   0.338  0.00  0.00    +0.000 HD
ATOM     10  H   UNL     1       0.535  -0.251  -0.595  0.00  0.00    +0.000 HD
ENDBRANCH   1   8
BRANCH   6  11
ATOM     11  C   UNL     1       2.564  -2.428   0.156  0.00  0.00    +0.000 C 
ATOM     12  C   UNL     1       3.119  -3.506  -0.414  0.00  0.00    +0.000 C 
ENDBRANCH   6  11
TORSDOF 2
