REMARK  Name = ligand_9232368
REMARK  3 active torsions:
REMARK  status: ('A' for Active; 'I' for Inactive)
REMARK    1  A    between atoms: N_1  and  N_2
REMARK    2  A    between atoms: C_5  and  C_6
REMARK    3  A    between atoms: C_8  and  O_9
REMARK                            x       y       z     vdW  Elec       q    Type
REMARK                         _______ _______ _______ _____ _____    ______ ____
ROOT
ATOM      1  N   UNL     1       2.472   0.041  -0.193  0.00  0.00    +0.000 N 
ATOM      2  C   UNL     1       3.280   1.137  -0.142  0.00  0.00    +0.000 A 
ATOM      3  C   UNL     1       4.583   0.693  -0.052  0.00  0.00    +0.000 A 
ATOM      4  C   UNL     1       4.544  -0.725  -0.047  0.00  0.00    +0.000 A 
ATOM      5  C   UNL     1       3.218  -1.111  -0.107  0.00  0.00    +0.000 A 
ENDROOT
BRANCH   1   6
ATOM      6  N   UNL     1       1.067   0.091  -0.315  0.00  0.00    +0.000 N 
ATOM      7  H   UNL     1       0.660   0.731   0.360  0.00  0.00    +0.000 HD
ATOM      8  H   UNL     1       0.681  -0.828  -0.097  0.00  0.00    +0.000 HD
ENDBRANCH   1   6
BRANCH   4   9
ATOM      9  C   UNL     1       5.663  -1.606   0.002  0.00  0.00    +0.000 C 
ATOM     10  C   UNL     1       6.614  -2.342   0.023  0.00  0.00    +0.000 C 
ENDBRANCH   4   9
BRANCH   5  11
ATOM     11  O   UNL     1       2.634  -2.311  -0.105  0.00  0.00    +0.000 OA
ATOM     12  H   UNL     1       3.351  -2.970  -0.078  0.00  0.00    +0.000 HD
ENDBRANCH   5  11
TORSDOF 3
