REMARK  Name = ligand_9232561
REMARK  1 active torsions:
REMARK  status: ('A' for Active; 'I' for Inactive)
REMARK    1  A    between atoms: N_1  and  N_2
REMARK                            x       y       z     vdW  Elec       q    Type
REMARK                         _______ _______ _______ _____ _____    ______ ____
ROOT
ATOM      1  N   UNL     1       2.533  -0.060  -0.047  0.00  0.00    +0.000 N 
ATOM      2  C   UNL     1       3.338   1.046  -0.118  0.00  0.00    +0.000 C 
ATOM      3  C   UNL     1       4.670   1.168  -0.090  0.00  0.00    +0.000 C 
ATOM      4  O   UNL     1       5.644   0.228   0.006  0.00  0.00    +0.000 OA
ATOM      5  C   UNL     1       5.444  -1.116  -0.056  0.00  0.00    +0.000 C 
ATOM      6  C   UNL     1       4.332  -1.864  -0.072  0.00  0.00    +0.000 C 
ATOM      7  C   UNL     1       2.913  -1.405  -0.007  0.00  0.00    +0.000 C 
ATOM      8  N   UNL     1       1.988  -2.338   0.088  0.00  0.00    +0.000 NA
ATOM      9  H   UNL     1       2.405  -3.271   0.082  0.00  0.00    +0.000 HD
ENDROOT
BRANCH   1  10
ATOM     10  N   UNL     1       1.132   0.161  -0.176  0.00  0.00    +0.000 NA
ATOM     11  H   UNL     1       0.837   0.903   0.449  0.00  0.00    +0.000 HD
ATOM     12  H   UNL     1       0.683  -0.692   0.177  0.00  0.00    +0.000 HD
ENDBRANCH   1  10
TORSDOF 1
