REMARK  Name = ligand_9233151
REMARK  1 active torsions:
REMARK  status: ('A' for Active; 'I' for Inactive)
REMARK    1  A    between atoms: N_1  and  N_2
REMARK                            x       y       z     vdW  Elec       q    Type
REMARK                         _______ _______ _______ _____ _____    ______ ____
ROOT
ATOM      1  N   UNL     1       2.281  -0.881  -0.419  0.00  0.00    +0.000 NA
ATOM      2  C   UNL     1       2.997  -0.863  -1.504  0.00  0.00    +0.000 C 
ATOM      3  N   UNL     1       4.363  -1.051  -1.489  0.00  0.00    +0.000 N 
ATOM      4  C   UNL     1       5.168  -0.658  -2.644  0.00  0.00    +0.000 C 
ATOM      5  C   UNL     1       4.288  -0.369  -3.881  0.00  0.00    +0.000 C 
ATOM      6  C   UNL     1       3.179  -1.420  -4.105  0.00  0.00    +0.000 C 
ATOM      7  C   UNL     1       2.483  -0.577  -2.997  0.00  0.00    +0.000 C 
ATOM      8  O   UNL     1       3.213   0.603  -3.558  0.00  0.00    +0.000 OA
ATOM      9  H   UNL     1       4.785  -0.962  -0.570  0.00  0.00    +0.000 HD
ENDROOT
BRANCH   1  10
ATOM     10  N   UNL     1       0.965  -0.617  -0.574  0.00  0.00    +0.000 N 
ATOM     11  H   UNL     1       0.523  -0.565   0.347  0.00  0.00    +0.000 HD
ATOM     12  H   UNL     1       0.814   0.299  -1.001  0.00  0.00    +0.000 HD
ENDBRANCH   1  10
TORSDOF 1
