REMARK  Name = ligand_9233174
REMARK  1 active torsions:
REMARK  status: ('A' for Active; 'I' for Inactive)
REMARK    1  A    between atoms: N_1  and  N_2
REMARK                            x       y       z     vdW  Elec       q    Type
REMARK                         _______ _______ _______ _____ _____    ______ ____
ROOT
ATOM      1  N   UNL     1       2.450   0.402  -0.199  0.00  0.00    +0.000 NA
ATOM      2  C   UNL     1       3.168   0.464   0.895  0.00  0.00    +0.000 C 
ATOM      3  N   UNL     1       4.479   0.106   0.829  0.00  0.00    +0.000 N 
ATOM      4  C   UNL     1       5.382  -0.337   1.744  0.00  0.00    +0.000 C 
ATOM      5  C   UNL     1       5.380  -0.192   3.071  0.00  0.00    +0.000 C 
ATOM      6  C   UNL     1       4.346   0.601   3.800  0.00  0.00    +0.000 C 
ATOM      7  C   UNL     1       2.930   0.317   3.329  0.00  0.00    +0.000 C 
ATOM      8  O   UNL     1       2.599   0.889   2.054  0.00  0.00    +0.000 OA
ATOM      9  H   UNL     1       4.735  -0.087  -0.137  0.00  0.00    +0.000 HD
ENDROOT
BRANCH   1  10
ATOM     10  N   UNL     1       1.132   0.681  -0.083  0.00  0.00    +0.000 N 
ATOM     11  H   UNL     1       0.586   0.049  -0.669  0.00  0.00    +0.000 HD
ATOM     12  H   UNL     1       0.808   0.582   0.880  0.00  0.00    +0.000 HD
ENDBRANCH   1  10
TORSDOF 1
