REMARK  Name = ligand_9233774
REMARK  5 active torsions:
REMARK  status: ('A' for Active; 'I' for Inactive)
REMARK    1  A    between atoms: N_1  and  N_2
REMARK    2  A    between atoms: C_3  and  C_4
REMARK    3  A    between atoms: C_4  and  C_5
REMARK    4  A    between atoms: C_6  and  O_7
REMARK    5  A    between atoms: O_7  and  C_8
REMARK                            x       y       z     vdW  Elec       q    Type
REMARK                         _______ _______ _______ _____ _____    ______ ____
ROOT
ATOM      1  C   UNL     1       4.504  -0.318  -1.105  0.00  0.00    +0.000 C 
ENDROOT
BRANCH   1   3
ATOM      2  N   UNL     1       2.427   0.882  -0.681  0.00  0.00    +0.000 NA
ATOM      3  C   UNL     1       3.668   0.937  -1.052  0.00  0.00    +0.000 C 
BRANCH   2   4
ATOM      4  N   UNL     1       1.821   2.081  -0.563  0.00  0.00    +0.000 N 
ATOM      5  H   UNL     1       0.805   1.962  -0.552  0.00  0.00    +0.000 HD
ATOM      6  H   UNL     1       2.047   2.743  -1.301  0.00  0.00    +0.000 HD
ENDBRANCH   2   4
ENDBRANCH   1   3
BRANCH   1   7
ATOM      7  C   UNL     1       5.016  -0.564  -2.491  0.00  0.00    +0.000 C 
ATOM      8  C   UNL     1       6.313  -0.709  -2.785  0.00  0.00    +0.000 C 
BRANCH   8   9
ATOM      9  O   UNL     1       6.739  -1.011  -4.054  0.00  0.00    +0.000 OA
BRANCH   9  10
ATOM     10  C   UNL     1       7.981  -1.573  -4.215  0.00  0.00    +0.000 C 
ATOM     11  C   UNL     1       8.473  -1.862  -5.424  0.00  0.00    +0.000 C 
ENDBRANCH   9  10
ENDBRANCH   8   9
ENDBRANCH   1   7
TORSDOF 5
