REMARK  Name = ligand_923488
REMARK  1 active torsions:
REMARK  status: ('A' for Active; 'I' for Inactive)
REMARK    1  A    between atoms: C_1  and  C_2
REMARK                            x       y       z     vdW  Elec       q    Type
REMARK                         _______ _______ _______ _____ _____    ______ ____
ROOT
ATOM      1  C   UNL     1       0.916  -0.128  -0.304  0.00  0.00    +0.000 C 
ATOM      2  C   UNL     1       2.319   0.211   0.147  0.00  0.00    +0.000 C 
ATOM      3  N   UNL     1       2.741   1.564  -0.328  0.00  0.00    +0.000 NA
ATOM      4  C   UNL     1       4.151   1.069  -0.366  0.00  0.00    +0.000 C 
ATOM      5  C   UNL     1       4.886   1.245   0.980  0.00  0.00    +0.000 C 
ATOM      6  N   UNL     1       5.729   0.089   1.306  0.00  0.00    +0.000 NA
ATOM      7  C   UNL     1       4.972  -1.166   1.279  0.00  0.00    +0.000 C 
ATOM      8  C   UNL     1       4.444  -1.462  -0.121  0.00  0.00    +0.000 C 
ATOM      9  C   UNL     1       3.557  -0.341  -0.635  0.00  0.00    +0.000 C 
ATOM     10  H   UNL     1       2.560   2.327   0.327  0.00  0.00    +0.000 HD
ATOM     11  H   UNL     1       6.111   0.221   2.243  0.00  0.00    +0.000 HD
ENDROOT
TORSDOF 0
