REMARK  Name = ligand_9234423
REMARK  2 active torsions:
REMARK  status: ('A' for Active; 'I' for Inactive)
REMARK    1  A    between atoms: N_1  and  N_2
REMARK    2  A    between atoms: C_7  and  C_8
REMARK                            x       y       z     vdW  Elec       q    Type
REMARK                         _______ _______ _______ _____ _____    ______ ____
ROOT
ATOM      1  N   UNL     1       2.440  -0.292  -1.363  0.00  0.00    +0.000 N 
ATOM      2  C   UNL     1       3.354  -0.962  -0.539  0.00  0.00    +0.000 C 
ATOM      3  O   UNL     1       3.071  -1.867   0.241  0.00  0.00    +0.000 OA
ATOM      4  N   UNL     1       4.624  -0.422  -0.715  0.00  0.00    +0.000 N 
ATOM      5  C   UNL     1       5.755  -0.824   0.049  0.00  0.00    +0.000 C 
ATOM      6  C   UNL     1       5.639  -1.139  -1.413  0.00  0.00    +0.000 C 
ATOM      7  H   UNL     1       2.875   0.141  -2.175  0.00  0.00    +0.000 HD
ENDROOT
BRANCH   1   8
ATOM      8  N   UNL     1       1.114  -0.755  -1.469  0.00  0.00    +0.000 NA
ATOM      9  H   UNL     1       0.543  -0.020  -1.889  0.00  0.00    +0.000 HD
ATOM     10  H   UNL     1       0.760  -0.873  -0.513  0.00  0.00    +0.000 HD
ENDBRANCH   1   8
BRANCH   6  11
ATOM     11  C   UNL     1       6.325  -0.354  -2.397  0.00  0.00    +0.000 C 
ATOM     12  C   UNL     1       6.834   0.349  -3.229  0.00  0.00    +0.000 C 
ENDBRANCH   6  11
TORSDOF 2
