REMARK  Name = ligand_9234508
REMARK  0 active torsions:
REMARK  status: ('A' for Active; 'I' for Inactive)
REMARK                            x       y       z     vdW  Elec       q    Type
REMARK                         _______ _______ _______ _____ _____    ______ ____
ROOT
ATOM      1  O   UNL     1       1.053  -0.877   0.361  0.00  0.00    +0.000 OA
ATOM      2  C   UNL     1      -0.263  -1.239   0.249  0.00  0.00    +0.000 C 
ATOM      3  N   UNL     1      -1.260  -0.580  -0.261  0.00  0.00    +0.000 NA
ATOM      4  O   UNL     1      -0.938   0.676  -0.851  0.00  0.00    +0.000 OA
ATOM      5  C   UNL     1       0.092   1.354  -0.150  0.00  0.00    +0.000 C 
ATOM      6  C   UNL     1       0.694   2.472  -0.952  0.00  0.00    +0.000 C 
ATOM      7  C   UNL     1       2.002   2.232  -1.160  0.00  0.00    +0.000 C 
ATOM      8  C   UNL     1       2.349   0.941  -0.605  0.00  0.00    +0.000 C 
ATOM      9  C   UNL     1       1.246   0.420  -0.052  0.00  0.00    +0.000 C 
ENDROOT
TORSDOF 0
