REMARK  Name = ligand_9234965
REMARK  1 active torsions:
REMARK  status: ('A' for Active; 'I' for Inactive)
REMARK    1  A    between atoms: O_1  and  C_2
REMARK                            x       y       z     vdW  Elec       q    Type
REMARK                         _______ _______ _______ _____ _____    ______ ____
ROOT
ATOM      1  C   UNL     1       2.369  -0.570   0.095  0.00  0.00    +0.000 C 
ATOM      2  C   UNL     1       3.067  -1.559  -0.857  0.00  0.00    +0.000 C 
ATOM      3  N   UNL     1       3.793  -2.170   0.274  0.00  0.00    +0.000 NA
ATOM      4  C   UNL     1       2.997  -1.374   1.237  0.00  0.00    +0.000 C 
ATOM      5  C   UNL     1       3.864  -0.268   1.861  0.00  0.00    +0.000 C 
ATOM      6  C   UNL     1       2.772   0.802   1.828  0.00  0.00    +0.000 C 
ATOM      7  C   UNL     1       3.134   0.742   0.333  0.00  0.00    +0.000 C 
ATOM      8  N   UNL     1       4.537   0.447   0.740  0.00  0.00    +0.000 NA
ATOM      9  H   UNL     1       4.778  -1.878   0.276  0.00  0.00    +0.000 HD
ATOM     10  H   UNL     1       5.056   1.275   1.042  0.00  0.00    +0.000 HD
ENDROOT
BRANCH   1  11
ATOM     11  O   UNL     1       0.926  -0.488   0.001  0.00  0.00    +0.000 OA
ATOM     12  H   UNL     1       0.638  -1.394  -0.209  0.00  0.00    +0.000 HD
ENDBRANCH   1  11
TORSDOF 1
