REMARK  Name = ligand_9234289
REMARK  3 active torsions:
REMARK  status: ('A' for Active; 'I' for Inactive)
REMARK    1  A    between atoms: N_1  and  N_2
REMARK    2  A    between atoms: C_3  and  C_5
REMARK    3  A    between atoms: C_6  and  C_7
REMARK                            x       y       z     vdW  Elec       q    Type
REMARK                         _______ _______ _______ _____ _____    ______ ____
ROOT
ATOM      1  N   UNL     1       2.530  -0.060  -0.057  0.00  0.00    +0.000 N 
ATOM      2  C   UNL     1       3.117   0.838  -0.947  0.00  0.00    +0.000 C 
ATOM      3  O   UNL     1       2.509   1.538  -1.741  0.00  0.00    +0.000 OA
ATOM      4  H   UNL     1       3.083  -0.464   0.692  0.00  0.00    +0.000 HD
ENDROOT
BRANCH   1   5
ATOM      5  N   UNL     1       1.128  -0.191  -0.019  0.00  0.00    +0.000 NA
ATOM      6  H   UNL     1       0.880  -1.117   0.334  0.00  0.00    +0.000 HD
ATOM      7  H   UNL     1       0.790  -0.158  -0.988  0.00  0.00    +0.000 HD
ENDBRANCH   1   5
BRANCH   2   8
ATOM      8  C   UNL     1       4.601   0.831  -0.842  0.00  0.00    +0.000 C 
ATOM      9  C   UNL     1       5.359   1.620  -1.620  0.00  0.00    +0.000 C 
BRANCH   9  10
ATOM     10  C   UNL     1       6.826   1.673  -1.589  0.00  0.00    +0.000 C 
ATOM     11  C   UNL     1       7.527   2.076  -0.318  0.00  0.00    +0.000 C 
ATOM     12  C   UNL     1       7.493   3.020  -1.484  0.00  0.00    +0.000 C 
ENDBRANCH   9  10
ENDBRANCH   2   8
TORSDOF 3
