REMARK  Name = ligand_9235459
REMARK  0 active torsions:
REMARK  status: ('A' for Active; 'I' for Inactive)
REMARK                            x       y       z     vdW  Elec       q    Type
REMARK                         _______ _______ _______ _____ _____    ______ ____
ROOT
ATOM      1  O   UNL     1       0.750   0.623   0.973  0.00  0.00    +0.000 OA
ATOM      2  C   UNL     1       1.844   0.599   0.457  0.00  0.00    +0.000 C 
ATOM      3  C   UNL     1       2.933   1.643   0.102  0.00  0.00    +0.000 C 
ATOM      4  C   UNL     1       3.821   1.959   1.307  0.00  0.00    +0.000 C 
ATOM      5  C   UNL     1       5.104   1.140   1.476  0.00  0.00    +0.000 C 
ATOM      6  C   UNL     1       5.119  -0.340   1.074  0.00  0.00    +0.000 C 
ATOM      7  C   UNL     1       3.763  -1.046   1.037  0.00  0.00    +0.000 C 
ATOM      8  C   UNL     1       2.824  -0.491  -0.038  0.00  0.00    +0.000 C 
ATOM      9  N   UNL     1       3.436   0.609  -0.840  0.00  0.00    +0.000 NA
ATOM     10  H   UNL     1       3.024   0.684  -1.774  0.00  0.00    +0.000 HD
ENDROOT
TORSDOF 0
