REMARK  Name = ligand_9235396
REMARK  1 active torsions:
REMARK  status: ('A' for Active; 'I' for Inactive)
REMARK    1  A    between atoms: C_6  and  C_8
REMARK                            x       y       z     vdW  Elec       q    Type
REMARK                         _______ _______ _______ _____ _____    ______ ____
ROOT
ATOM      1  O   UNL     1       0.980   0.008   0.232  0.00  0.00    +0.000 OA
ATOM      2  C   UNL     1       2.172   0.041   0.061  0.00  0.00    +0.000 C 
ATOM      3  C   UNL     1       3.400  -0.976  -0.062  0.00  0.00    +0.000 C 
ATOM      4  C   UNL     1       4.201  -0.849   1.239  0.00  0.00    +0.000 C 
ATOM      5  C   UNL     1       4.226   0.686   1.375  0.00  0.00    +0.000 C 
ATOM      6  C   UNL     1       3.402   1.041   0.139  0.00  0.00    +0.000 C 
ATOM      7  N   UNL     1       3.920   0.139  -0.959  0.00  0.00    +0.000 NA
ATOM      8  H   UNL     1       4.931   0.157  -1.079  0.00  0.00    +0.000 HD
ENDROOT
BRANCH   6   9
ATOM      9  C   UNL     1       3.234   2.411  -0.220  0.00  0.00    +0.000 C 
ATOM     10  C   UNL     1       3.095   3.587  -0.419  0.00  0.00    +0.000 C 
ENDBRANCH   6   9
TORSDOF 1
