REMARK  Name = ligand_923549
REMARK  1 active torsions:
REMARK  status: ('A' for Active; 'I' for Inactive)
REMARK    1  A    between atoms: C_1  and  C_2
REMARK                            x       y       z     vdW  Elec       q    Type
REMARK                         _______ _______ _______ _____ _____    ______ ____
ROOT
ATOM      1  C   UNL     1       1.646  -0.466   0.686  0.00  0.00    +0.000 C 
ATOM      2  C   UNL     1       2.828   0.189   0.008  0.00  0.00    +0.000 C 
ATOM      3  N   UNL     1       4.125  -0.014   0.714  0.00  0.00    +0.000 NA
ATOM      4  C   UNL     1       4.573   1.283   0.129  0.00  0.00    +0.000 C 
ATOM      5  C   UNL     1       3.076   1.725   0.189  0.00  0.00    +0.000 C 
ATOM      6  C   UNL     1       2.707   2.453   1.474  0.00  0.00    +0.000 C 
ATOM      7  C   UNL     1       2.768   3.923   1.073  0.00  0.00    +0.000 C 
ATOM      8  N   UNL     1       2.750   3.999  -0.398  0.00  0.00    +0.000 NA
ATOM      9  C   UNL     1       2.545   2.632  -0.895  0.00  0.00    +0.000 C 
ATOM     10  H   UNL     1       4.662  -0.832   0.421  0.00  0.00    +0.000 HD
ATOM     11  H   UNL     1       3.665   4.325  -0.709  0.00  0.00    +0.000 HD
ENDROOT
TORSDOF 0
