REMARK  Name = ligand_9236961
REMARK  1 active torsions:
REMARK  status: ('A' for Active; 'I' for Inactive)
REMARK    1  A    between atoms: O_1  and  C_2
REMARK                            x       y       z     vdW  Elec       q    Type
REMARK                         _______ _______ _______ _____ _____    ______ ____
ROOT
ATOM      1  C   UNL     1       2.695   0.147   0.001  0.00  0.00    +0.000 A 
ATOM      2  C   UNL     1       3.548   1.203   0.014  0.00  0.00    +0.000 A 
ATOM      3  C   UNL     1       4.824   0.605   0.087  0.00  0.00    +0.000 A 
ATOM      4  C   UNL     1       6.145   0.697   0.133  0.00  0.00    +0.000 A 
ATOM      5  N   UNL     1       6.722  -0.551   0.263  0.00  0.00    +0.000 N 
ATOM      6  O   UNL     1       5.701  -1.534   0.123  0.00  0.00    +0.000 OA
ATOM      7  C   UNL     1       4.548  -0.820   0.086  0.00  0.00    +0.000 A 
ATOM      8  N   UNL     1       3.289  -1.118   0.024  0.00  0.00    +0.000 NA
ATOM      9  H   UNL     1       7.554  -0.726  -0.298  0.00  0.00    +0.000 HD
ENDROOT
BRANCH   1  10
ATOM     10  O   UNL     1       1.335   0.250  -0.019  0.00  0.00    +0.000 OA
ATOM     11  H   UNL     1       1.101   1.190   0.025  0.00  0.00    +0.000 HD
ENDBRANCH   1  10
TORSDOF 1
