REMARK  Name = ligand_9236621
REMARK  0 active torsions:
REMARK  status: ('A' for Active; 'I' for Inactive)
REMARK                            x       y       z     vdW  Elec       q    Type
REMARK                         _______ _______ _______ _____ _____    ______ ____
ROOT
ATOM      1  O   UNL     1       0.886  -0.267  -0.454  0.00  0.00    +0.000 OA
ATOM      2  C   UNL     1       2.092  -0.060  -0.308  0.00  0.00    +0.000 C 
ATOM      3  C   UNL     1       2.755   1.164  -0.820  0.00  0.00    +0.000 C 
ATOM      4  C   UNL     1       4.031   1.029  -0.494  0.00  0.00    +0.000 C 
ATOM      5  C   UNL     1       5.269   1.684  -0.422  0.00  0.00    +0.000 C 
ATOM      6  C   UNL     1       6.019   0.981   0.451  0.00  0.00    +0.000 C 
ATOM      7  C   UNL     1       5.458  -0.397   0.820  0.00  0.00    +0.000 C 
ATOM      8  C   UNL     1       4.100  -0.201   0.257  0.00  0.00    +0.000 C 
ATOM      9  N   UNL     1       2.995  -0.837   0.356  0.00  0.00    +0.000 NA
ENDROOT
TORSDOF 0
