REMARK  Name = ligand_9237268
REMARK  0 active torsions:
REMARK  status: ('A' for Active; 'I' for Inactive)
REMARK                            x       y       z     vdW  Elec       q    Type
REMARK                         _______ _______ _______ _____ _____    ______ ____
ROOT
ATOM      1  O   UNL     1       1.353  -0.204   0.452  0.00  0.00    +0.000 OA
ATOM      2  C   UNL     1       1.831   0.882   0.269  0.00  0.00    +0.000 C 
ATOM      3  C   UNL     1       1.613   2.414   0.624  0.00  0.00    +0.000 C 
ATOM      4  C   UNL     1       2.837   2.562  -0.220  0.00  0.00    +0.000 A 
ATOM      5  N   UNL     1       3.633   3.530  -0.646  0.00  0.00    +0.000 NA
ATOM      6  N   UNL     1       4.640   3.142  -1.385  0.00  0.00    +0.000 NA
ATOM      7  N   UNL     1       4.847   1.833  -1.681  0.00  0.00    +0.000 NA
ATOM      8  C   UNL     1       4.022   0.869  -1.231  0.00  0.00    +0.000 A 
ATOM      9  C   UNL     1       2.988   1.253  -0.480  0.00  0.00    +0.000 A 
ENDROOT
TORSDOF 0
