REMARK  Name = ligand_9237706
REMARK  0 active torsions:
REMARK  status: ('A' for Active; 'I' for Inactive)
REMARK                            x       y       z     vdW  Elec       q    Type
REMARK                         _______ _______ _______ _____ _____    ______ ____
ROOT
ATOM      1  O   UNL     1       1.108   0.044   0.381  0.00  0.00    +0.000 OA
ATOM      2  C   UNL     1       2.317   0.056   0.232  0.00  0.00    +0.000 C 
ATOM      3  C   UNL     1       3.162   1.314   0.093  0.00  0.00    +0.000 C 
ATOM      4  C   UNL     1       4.596   0.792   0.343  0.00  0.00    +0.000 C 
ATOM      5  C   UNL     1       4.395  -0.607   0.875  0.00  0.00    +0.000 C 
ATOM      6  C   UNL     1       5.262  -1.775   0.618  0.00  0.00    +0.000 C 
ATOM      7  N   UNL     1       4.591  -2.873   0.471  0.00  0.00    +0.000 NA
ATOM      8  O   UNL     1       3.202  -2.477   0.499  0.00  0.00    +0.000 OA
ATOM      9  C   UNL     1       3.223  -1.150   0.082  0.00  0.00    +0.000 C 
ENDROOT
TORSDOF 0
