REMARK  Name = ligand_9237232
REMARK  0 active torsions:
REMARK  status: ('A' for Active; 'I' for Inactive)
REMARK                            x       y       z     vdW  Elec       q    Type
REMARK                         _______ _______ _______ _____ _____    ______ ____
ROOT
ATOM      1  O   UNL     1       1.116   0.334  -0.010  0.00  0.00    +0.000 OA
ATOM      2  C   UNL     1       2.329   0.173  -0.015  0.00  0.00    +0.000 C 
ATOM      3  C   UNL     1       3.053  -1.209  -0.013  0.00  0.00    +0.000 C 
ATOM      4  C   UNL     1       4.414  -0.703  -0.023  0.00  0.00    +0.000 A 
ATOM      5  C   UNL     1       4.481   0.644  -0.028  0.00  0.00    +0.000 A 
ATOM      6  O   UNL     1       3.266   1.210  -0.023  0.00  0.00    +0.000 OA
ATOM      7  N   UNL     1       5.754   1.089  -0.039  0.00  0.00    +0.000 NA
ATOM      8  C   UNL     1       6.471  -0.025  -0.041  0.00  0.00    +0.000 A 
ATOM      9  N   UNL     1       5.683  -1.162  -0.032  0.00  0.00    +0.000 N 
ATOM     10  H   UNL     1       6.012  -2.119  -0.033  0.00  0.00    +0.000 HD
ENDROOT
TORSDOF 0
