REMARK  Name = ligand_9237341
REMARK  1 active torsions:
REMARK  status: ('A' for Active; 'I' for Inactive)
REMARK    1  A    between atoms: O_1  and  C_2
REMARK                            x       y       z     vdW  Elec       q    Type
REMARK                         _______ _______ _______ _____ _____    ______ ____
ROOT
ATOM      1  C   UNL     1       1.922  -0.192  -0.955  0.00  0.00    +0.000 C 
ATOM      2  C   UNL     1       1.454  -0.174  -2.441  0.00  0.00    +0.000 C 
ATOM      3  C   UNL     1       2.933  -0.339  -2.819  0.00  0.00    +0.000 C 
ATOM      4  C   UNL     1       3.117  -1.087  -1.449  0.00  0.00    +0.000 C 
ATOM      5  C   UNL     1       2.864  -2.579  -1.359  0.00  0.00    +0.000 C 
ATOM      6  C   UNL     1       4.213  -3.191  -1.712  0.00  0.00    +0.000 C 
ATOM      7  N   UNL     1       5.232  -2.131  -1.582  0.00  0.00    +0.000 NA
ATOM      8  C   UNL     1       4.547  -0.974  -0.962  0.00  0.00    +0.000 C 
ATOM      9  H   UNL     1       5.515  -1.863  -2.531  0.00  0.00    +0.000 HD
ENDROOT
BRANCH   1  10
ATOM     10  O   UNL     1       1.004  -0.793  -0.022  0.00  0.00    +0.000 OA
ATOM     11  H   UNL     1       0.222  -0.215  -0.027  0.00  0.00    +0.000 HD
ENDBRANCH   1  10
TORSDOF 1
