REMARK  Name = ligand_9238350
REMARK  1 active torsions:
REMARK  status: ('A' for Active; 'I' for Inactive)
REMARK    1  A    between atoms: O_1  and  C_2
REMARK                            x       y       z     vdW  Elec       q    Type
REMARK                         _______ _______ _______ _____ _____    ______ ____
ROOT
ATOM      1  C   UNL     1       2.514  -0.065   0.063  0.00  0.00    +0.000 C 
ATOM      2  C   UNL     1       2.956   0.942  -0.976  0.00  0.00    +0.000 C 
ATOM      3  C   UNL     1       3.691   2.028  -0.683  0.00  0.00    +0.000 C 
ATOM      4  C   UNL     1       2.517   0.605  -2.379  0.00  0.00    +0.000 C 
ATOM      5  C   UNL     1       3.014  -0.790  -2.749  0.00  0.00    +0.000 C 
ATOM      6  N   UNL     1       2.730  -1.792  -1.744  0.00  0.00    +0.000 N 
ATOM      7  C   UNL     1       2.805  -1.521  -0.396  0.00  0.00    +0.000 C 
ATOM      8  O   UNL     1       3.021  -2.441   0.394  0.00  0.00    +0.000 OA
ATOM      9  H   UNL     1       2.935  -2.760  -1.958  0.00  0.00    +0.000 HD
ENDROOT
BRANCH   1  10
ATOM     10  O   UNL     1       1.119   0.116   0.284  0.00  0.00    +0.000 OA
ATOM     11  H   UNL     1       0.945   1.070   0.246  0.00  0.00    +0.000 HD
ENDBRANCH   1  10
TORSDOF 1
