REMARK  Name = ligand_9239542
REMARK  1 active torsions:
REMARK  status: ('A' for Active; 'I' for Inactive)
REMARK    1  A    between atoms: O_1  and  C_2
REMARK                            x       y       z     vdW  Elec       q    Type
REMARK                         _______ _______ _______ _____ _____    ______ ____
ROOT
ATOM      1  C   UNL     1       2.625   0.163  -0.057  0.00  0.00    +0.000 C 
ATOM      2  C   UNL     1       2.905   1.589  -0.538  0.00  0.00    +0.000 C 
ATOM      3  C   UNL     1       4.343   2.037  -0.255  0.00  0.00    +0.000 C 
ATOM      4  O   UNL     1       4.970   1.198   0.716  0.00  0.00    +0.000 OA
ATOM      5  C   UNL     1       5.071  -0.187   0.303  0.00  0.00    +0.000 C 
ATOM      6  C   UNL     1       4.739  -1.279   1.355  0.00  0.00    +0.000 C 
ATOM      7  N   UNL     1       3.948  -1.989   0.325  0.00  0.00    +0.000 NA
ATOM      8  C   UNL     1       3.818  -0.725  -0.435  0.00  0.00    +0.000 C 
ATOM      9  H   UNL     1       3.058  -2.384   0.630  0.00  0.00    +0.000 HD
ENDROOT
BRANCH   1  10
ATOM     10  O   UNL     1       1.434  -0.345  -0.653  0.00  0.00    +0.000 OA
ATOM     11  H   UNL     1       0.694   0.191  -0.318  0.00  0.00    +0.000 HD
ENDBRANCH   1  10
TORSDOF 1
