REMARK  Name = ligand_9239866
REMARK  0 active torsions:
REMARK  status: ('A' for Active; 'I' for Inactive)
REMARK                            x       y       z     vdW  Elec       q    Type
REMARK                         _______ _______ _______ _____ _____    ______ ____
ROOT
ATOM      1  O   UNL     1       1.208   0.047   0.080  0.00  0.00    +0.000 OA
ATOM      2  C   UNL     1       2.432   0.033   0.078  0.00  0.00    +0.000 C 
ATOM      3  C   UNL     1       3.307   1.282   0.088  0.00  0.00    +0.000 C 
ATOM      4  N   UNL     1       4.577   0.658   0.072  0.00  0.00    +0.000 N 
ATOM      5  C   UNL     1       5.870   0.997   0.064  0.00  0.00    +0.000 A 
ATOM      6  N   UNL     1       6.610  -0.098   0.055  0.00  0.00    +0.000 NA
ATOM      7  C   UNL     1       5.720  -1.164   0.057  0.00  0.00    +0.000 A 
ATOM      8  C   UNL     1       4.437  -0.684   0.064  0.00  0.00    +0.000 A 
ATOM      9  O   UNL     1       3.190  -1.133   0.067  0.00  0.00    +0.000 OA
ENDROOT
TORSDOF 0
