REMARK  Name = ligand_9239476
REMARK  1 active torsions:
REMARK  status: ('A' for Active; 'I' for Inactive)
REMARK    1  A    between atoms: O_1  and  C_2
REMARK                            x       y       z     vdW  Elec       q    Type
REMARK                         _______ _______ _______ _____ _____    ______ ____
ROOT
ATOM      1  C   UNL     1       2.451   0.010  -0.054  0.00  0.00    +0.000 C 
ATOM      2  C   UNL     1       3.016   1.248  -0.732  0.00  0.00    +0.000 C 
ATOM      3  C   UNL     1       4.457   1.577  -0.432  0.00  0.00    +0.000 C 
ATOM      4  N   UNL     1       5.406   0.818   0.032  0.00  0.00    +0.000 NA
ATOM      5  O   UNL     1       5.017  -0.480   0.413  0.00  0.00    +0.000 OA
ATOM      6  C   UNL     1       4.544  -1.264  -0.688  0.00  0.00    +0.000 C 
ATOM      7  C   UNL     1       3.038  -1.259  -0.636  0.00  0.00    +0.000 C 
ATOM      8  C   UNL     1       2.313  -2.314  -1.057  0.00  0.00    +0.000 C 
ENDROOT
BRANCH   1   9
ATOM      9  O   UNL     1       1.031   0.018  -0.212  0.00  0.00    +0.000 OA
ATOM     10  H   UNL     1       0.678   0.670   0.417  0.00  0.00    +0.000 HD
ENDBRANCH   1   9
TORSDOF 1
