REMARK  Name = ligand_9239930
REMARK  0 active torsions:
REMARK  status: ('A' for Active; 'I' for Inactive)
REMARK                            x       y       z     vdW  Elec       q    Type
REMARK                         _______ _______ _______ _____ _____    ______ ____
ROOT
ATOM      1  O   UNL     1       2.402  -1.256   0.245  0.00  0.00    +0.000 OA
ATOM      2  C   UNL     1       3.134  -0.608   0.958  0.00  0.00    +0.000 C 
ATOM      3  C   UNL     1       4.544  -0.807   1.564  0.00  0.00    +0.000 C 
ATOM      4  N   UNL     1       4.544   0.662   1.770  0.00  0.00    +0.000 NA
ATOM      5  C   UNL     1       3.055   0.718   1.726  0.00  0.00    +0.000 C 
ATOM      6  C   UNL     1       2.364   0.698   3.080  0.00  0.00    +0.000 C 
ATOM      7  O   UNL     1       1.774   2.012   3.255  0.00  0.00    +0.000 OA
ATOM      8  C   UNL     1       1.875   2.594   2.001  0.00  0.00    +0.000 C 
ATOM      9  C   UNL     1       2.567   1.927   1.078  0.00  0.00    +0.000 C 
ATOM     10  H   UNL     1       4.981   1.159   0.989  0.00  0.00    +0.000 HD
ENDROOT
TORSDOF 0
