REMARK  Name = ligand_9239351
REMARK  2 active torsions:
REMARK  status: ('A' for Active; 'I' for Inactive)
REMARK    1  A    between atoms: O_1  and  C_2
REMARK    2  A    between atoms: C_2  and  C_8
REMARK                            x       y       z     vdW  Elec       q    Type
REMARK                         _______ _______ _______ _____ _____    ______ ____
ROOT
ATOM      1  C   UNL     1       2.467   0.053   0.069  0.00  0.00    +0.000 C 
ATOM      2  C   UNL     1       2.764   1.403  -0.587  0.00  0.00    +0.000 C 
ATOM      3  C   UNL     1       3.616   1.325  -1.848  0.00  0.00    +0.000 C 
ATOM      4  N   UNL     1       4.245   0.036  -2.070  0.00  0.00    +0.000 N 
ATOM      5  N   UNL     1       3.619  -1.127  -1.823  0.00  0.00    +0.000 NA
ATOM      6  C   UNL     1       2.838  -1.141  -0.785  0.00  0.00    +0.000 C 
ATOM      7  H   UNL     1       4.681   0.011  -2.997  0.00  0.00    +0.000 HD
ENDROOT
BRANCH   1   8
ATOM      8  O   UNL     1       1.049  -0.052   0.272  0.00  0.00    +0.000 OA
ATOM      9  H   UNL     1       0.630   0.022  -0.603  0.00  0.00    +0.000 HD
ENDBRANCH   1   8
BRANCH   1  10
ATOM     10  C   UNL     1       3.114  -0.046   1.393  0.00  0.00    +0.000 C 
ATOM     11  C   UNL     1       3.635  -0.087   2.471  0.00  0.00    +0.000 C 
ENDBRANCH   1  10
TORSDOF 2
