REMARK  Name = ligand_9239953
REMARK  1 active torsions:
REMARK  status: ('A' for Active; 'I' for Inactive)
REMARK    1  A    between atoms: C_5  and  C_6
REMARK                            x       y       z     vdW  Elec       q    Type
REMARK                         _______ _______ _______ _____ _____    ______ ____
ROOT
ATOM      1  O   UNL     1       1.024  -0.314   0.307  0.00  0.00    +0.000 OA
ATOM      2  C   UNL     1       2.219  -0.268   0.108  0.00  0.00    +0.000 C 
ATOM      3  C   UNL     1       3.300  -1.286  -0.265  0.00  0.00    +0.000 C 
ATOM      4  N   UNL     1       4.222  -0.147  -0.420  0.00  0.00    +0.000 NA
ATOM      5  C   UNL     1       3.262   0.852   0.105  0.00  0.00    +0.000 C 
ATOM      6  H   UNL     1       4.487   0.020  -1.393  0.00  0.00    +0.000 HD
ENDROOT
BRANCH   5   7
ATOM      7  C   UNL     1       3.869   1.424   1.392  0.00  0.00    +0.000 C 
ATOM      8  C   UNL     1       3.835   0.503   2.613  0.00  0.00    +0.000 C 
ATOM      9  O   UNL     1       3.177   1.536   3.397  0.00  0.00    +0.000 OA
ATOM     10  C   UNL     1       2.840   2.244   2.175  0.00  0.00    +0.000 C 
ENDBRANCH   5   7
TORSDOF 1
