REMARK  Name = ligand_92406
REMARK  2 active torsions:
REMARK  status: ('A' for Active; 'I' for Inactive)
REMARK    1  A    between atoms: C_1  and  C_2
REMARK    2  A    between atoms: C_6  and  C_7
REMARK                            x       y       z     vdW  Elec       q    Type
REMARK                         _______ _______ _______ _____ _____    ______ ____
ROOT
ATOM      1  C   UNL     1       1.070   0.077   0.182  0.00  0.00    +0.000 C 
ATOM      2  C   UNL     1       2.593   0.060   0.026  0.00  0.00    +0.000 C 
ATOM      3  C   UNL     1       3.072   1.251  -0.782  0.00  0.00    +0.000 C 
ATOM      4  C   UNL     1       3.207   2.515  -0.370  0.00  0.00    +0.000 C 
ATOM      5  C   UNL     1       3.416   0.748  -2.091  0.00  0.00    +0.000 C 
ATOM      6  C   UNL     1       3.385  -0.595  -2.124  0.00  0.00    +0.000 C 
ATOM      7  C   UNL     1       3.650  -1.450  -3.314  0.00  0.00    +0.000 C 
ATOM      8  C   UNL     1       3.039  -1.126  -0.813  0.00  0.00    +0.000 C 
ATOM      9  C   UNL     1       3.160  -2.392  -0.394  0.00  0.00    +0.000 C 
ENDROOT
TORSDOF 0
