REMARK  Name = ligand_9240902
REMARK  2 active torsions:
REMARK  status: ('A' for Active; 'I' for Inactive)
REMARK    1  A    between atoms: O_1  and  C_2
REMARK    2  A    between atoms: C_5  and  N_6
REMARK                            x       y       z     vdW  Elec       q    Type
REMARK                         _______ _______ _______ _____ _____    ______ ____
ROOT
ATOM      1  C   UNL     1       2.299  -0.061  -0.068  0.00  0.00    +0.000 A 
ATOM      2  C   UNL     1       3.190   0.976  -0.002  0.00  0.00    +0.000 A 
ATOM      3  N   UNL     1       4.446   0.419   0.020  0.00  0.00    +0.000 N 
ATOM      4  C   UNL     1       4.353  -0.950  -0.077  0.00  0.00    +0.000 A 
ATOM      5  C   UNL     1       3.012  -1.272  -0.117  0.00  0.00    +0.000 A 
ATOM      6  H   UNL     1       5.309   0.942   0.046  0.00  0.00    +0.000 HD
ENDROOT
BRANCH   4   7
ATOM      7  N   UNL     1       5.474  -1.708  -0.120  0.00  0.00    +0.000 N 
ATOM      8  C   UNL     1       5.564  -3.003  -0.543  0.00  0.00    +0.000 C 
ATOM      9  N   UNL     1       6.618  -3.739  -0.530  0.00  0.00    +0.000 NA
ATOM     10  H   UNL     1       6.356  -1.306   0.173  0.00  0.00    +0.000 HD
ATOM     11  H   UNL     1       7.407  -3.233  -0.125  0.00  0.00    +0.000 HD
ENDBRANCH   4   7
BRANCH   1  12
ATOM     12  O   UNL     1       0.968   0.077  -0.097  0.00  0.00    +0.000 OA
ATOM     13  H   UNL     1       0.725   1.017  -0.060  0.00  0.00    +0.000 HD
ENDBRANCH   1  12
TORSDOF 2
