REMARK  Name = ligand_9240636
REMARK  1 active torsions:
REMARK  status: ('A' for Active; 'I' for Inactive)
REMARK    1  A    between atoms: C_6  and  C_8
REMARK                            x       y       z     vdW  Elec       q    Type
REMARK                         _______ _______ _______ _____ _____    ______ ____
ROOT
ATOM      1  O   UNL     1       0.858  -0.139  -0.079  0.00  0.00    +0.000 OA
ATOM      2  C   UNL     1       2.087  -0.064  -0.079  0.00  0.00    +0.000 C 
ATOM      3  C   UNL     1       2.827   1.290  -0.100  0.00  0.00    +0.000 C 
ATOM      4  N   UNL     1       4.284   1.151  -0.032  0.00  0.00    +0.000 N 
ATOM      5  C   UNL     1       4.903  -0.073  -0.057  0.00  0.00    +0.000 C 
ATOM      6  C   UNL     1       4.223  -1.229  -0.072  0.00  0.00    +0.000 C 
ATOM      7  N   UNL     1       2.847  -1.214  -0.077  0.00  0.00    +0.000 N 
ATOM      8  H   UNL     1       4.852   1.991  -0.100  0.00  0.00    +0.000 HD
ATOM      9  H   UNL     1       2.332  -2.087  -0.070  0.00  0.00    +0.000 HD
ENDROOT
BRANCH   6  10
ATOM     10  C   UNL     1       4.935  -2.571  -0.061  0.00  0.00    +0.000 C 
ATOM     11  N   UNL     1       5.526  -3.685  -0.052  0.00  0.00    +0.000 NA
ENDBRANCH   6  10
TORSDOF 1
