REMARK  Name = ligand_9241592
REMARK  0 active torsions:
REMARK  status: ('A' for Active; 'I' for Inactive)
REMARK                            x       y       z     vdW  Elec       q    Type
REMARK                         _______ _______ _______ _____ _____    ______ ____
ROOT
ATOM      1  O   UNL     1       1.151   0.012  -0.041  0.00  0.00    +0.000 OA
ATOM      2  C   UNL     1       2.370   0.047  -0.039  0.00  0.00    +0.000 C 
ATOM      3  C   UNL     1       3.334  -1.157  -0.047  0.00  0.00    +0.000 C 
ATOM      4  O   UNL     1       4.698  -0.617  -0.031  0.00  0.00    +0.000 OA
ATOM      5  N   UNL     1       4.489   0.759  -0.028  0.00  0.00    +0.000 N 
ATOM      6  C   UNL     1       5.316   1.824  -0.025  0.00  0.00    +0.000 A 
ATOM      7  N   UNL     1       4.596   2.937  -0.027  0.00  0.00    +0.000 NA
ATOM      8  C   UNL     1       3.265   2.531  -0.032  0.00  0.00    +0.000 A 
ATOM      9  C   UNL     1       3.215   1.170  -0.033  0.00  0.00    +0.000 A 
ENDROOT
TORSDOF 0
