REMARK  Name = ligand_9241945
REMARK  0 active torsions:
REMARK  status: ('A' for Active; 'I' for Inactive)
REMARK                            x       y       z     vdW  Elec       q    Type
REMARK                         _______ _______ _______ _____ _____    ______ ____
ROOT
ATOM      1  O   UNL     1       2.199   0.752  -1.191  0.00  0.00    +0.000 OA
ATOM      2  C   UNL     1       3.006   0.747  -0.297  0.00  0.00    +0.000 C 
ATOM      3  N   UNL     1       4.373   0.654  -0.345  0.00  0.00    +0.000 N 
ATOM      4  C   UNL     1       4.517   0.744   1.109  0.00  0.00    +0.000 C 
ATOM      5  C   UNL     1       3.039   1.189   1.161  0.00  0.00    +0.000 C 
ATOM      6  C   UNL     1       2.219   0.546   2.248  0.00  0.00    +0.000 C 
ATOM      7  C   UNL     1       2.292   1.620   3.332  0.00  0.00    +0.000 C 
ATOM      8  O   UNL     1       2.472   2.890   2.687  0.00  0.00    +0.000 OA
ATOM      9  C   UNL     1       2.701   2.658   1.296  0.00  0.00    +0.000 C 
ATOM     10  H   UNL     1       4.817   1.263  -1.034  0.00  0.00    +0.000 HD
ENDROOT
TORSDOF 0
