REMARK  Name = ligand_9241738
REMARK  0 active torsions:
REMARK  status: ('A' for Active; 'I' for Inactive)
REMARK                            x       y       z     vdW  Elec       q    Type
REMARK                         _______ _______ _______ _____ _____    ______ ____
ROOT
ATOM      1  O   UNL     1       1.715  -0.238  -1.453  0.00  0.00    +0.000 OA
ATOM      2  C   UNL     1       2.497  -0.132  -0.522  0.00  0.00    +0.000 C 
ATOM      3  N   UNL     1       3.197   1.056  -0.270  0.00  0.00    +0.000 N 
ATOM      4  C   UNL     1       3.844   1.180   0.990  0.00  0.00    +0.000 C 
ATOM      5  C   UNL     1       5.194   1.217   1.572  0.00  0.00    +0.000 C 
ATOM      6  C   UNL     1       4.773  -0.095   1.059  0.00  0.00    +0.000 C 
ATOM      7  N   UNL     1       3.871  -1.152   1.357  0.00  0.00    +0.000 N 
ATOM      8  C   UNL     1       2.781  -1.331   0.492  0.00  0.00    +0.000 C 
ATOM      9  O   UNL     1       2.101  -2.344   0.511  0.00  0.00    +0.000 OA
ATOM     10  H   UNL     1       2.933   1.861  -0.824  0.00  0.00    +0.000 HD
ATOM     11  H   UNL     1       4.141  -1.953   1.914  0.00  0.00    +0.000 HD
ENDROOT
TORSDOF 0
