REMARK  Name = ligand_9242700
REMARK  0 active torsions:
REMARK  status: ('A' for Active; 'I' for Inactive)
REMARK                            x       y       z     vdW  Elec       q    Type
REMARK                         _______ _______ _______ _____ _____    ______ ____
ROOT
ATOM      1  O   UNL     1       1.063   0.102  -0.038  0.00  0.00    +0.000 OA
ATOM      2  C   UNL     1       2.264  -0.094  -0.034  0.00  0.00    +0.000 A 
ATOM      3  N   UNL     1       3.281   0.913  -0.033  0.00  0.00    +0.000 N 
ATOM      4  C   UNL     1       4.528   0.304  -0.032  0.00  0.00    +0.000 A 
ATOM      5  C   UNL     1       4.329  -1.013  -0.032  0.00  0.00    +0.000 A 
ATOM      6  C   UNL     1       4.987  -2.260  -0.036  0.00  0.00    +0.000 A 
ATOM      7  C   UNL     1       3.993  -3.157  -0.039  0.00  0.00    +0.000 A 
ATOM      8  O   UNL     1       2.700  -2.612  -0.037  0.00  0.00    +0.000 OA
ATOM      9  N   UNL     1       2.989  -1.254  -0.032  0.00  0.00    +0.000 N 
ATOM     10  H   UNL     1       3.081   1.901  -0.036  0.00  0.00    +0.000 HD
ENDROOT
TORSDOF 0
