REMARK  Name = ligand_9243743
REMARK  2 active torsions:
REMARK  status: ('A' for Active; 'I' for Inactive)
REMARK    1  A    between atoms: O_1  and  C_2
REMARK    2  A    between atoms: C_2  and  C_3
REMARK                            x       y       z     vdW  Elec       q    Type
REMARK                         _______ _______ _______ _____ _____    ______ ____
ROOT
ATOM      1  C   UNL     1       3.016   0.192   1.700  0.00  0.00    +0.000 C 
ATOM      2  C   UNL     1       2.506   1.339   2.554  0.00  0.00    +0.000 C 
ATOM      3  N   UNL     1       3.920   1.247   2.212  0.00  0.00    +0.000 NA
ATOM      4  N   UNL     1       4.591   0.589   3.248  0.00  0.00    +0.000 N 
ATOM      5  C   UNL     1       4.388  -0.777   3.343  0.00  0.00    +0.000 C 
ATOM      6  O   UNL     1       4.971  -1.542   4.094  0.00  0.00    +0.000 OA
ATOM      7  C   UNL     1       3.310  -1.128   2.359  0.00  0.00    +0.000 C 
ATOM      8  H   UNL     1       5.335   1.039   3.769  0.00  0.00    +0.000 HD
ENDROOT
BRANCH   1   9
ATOM      9  C   UNL     1       2.659   0.177   0.246  0.00  0.00    +0.000 C 
BRANCH   9  10
ATOM     10  O   UNL     1       1.256  -0.025   0.122  0.00  0.00    +0.000 OA
ATOM     11  H   UNL     1       1.045   0.053  -0.824  0.00  0.00    +0.000 HD
ENDBRANCH   9  10
ENDBRANCH   1   9
TORSDOF 2
