REMARK  Name = ligand_9243399
REMARK  1 active torsions:
REMARK  status: ('A' for Active; 'I' for Inactive)
REMARK    1  A    between atoms: O_1  and  C_2
REMARK                            x       y       z     vdW  Elec       q    Type
REMARK                         _______ _______ _______ _____ _____    ______ ____
ROOT
ATOM      1  C   UNL     1       2.437   0.148   0.000  0.00  0.00    +0.000 A 
ATOM      2  C   UNL     1       3.226   1.255   0.030  0.00  0.00    +0.000 A 
ATOM      3  C   UNL     1       3.217   2.711   0.076  0.00  0.00    +0.000 C 
ATOM      4  N   UNL     1       4.648   3.054  -0.201  0.00  0.00    +0.000 NA
ATOM      5  C   UNL     1       5.510   1.840   0.017  0.00  0.00    +0.000 C 
ATOM      6  C   UNL     1       4.518   0.762   0.005  0.00  0.00    +0.000 A 
ATOM      7  N   UNL     1       4.599  -0.561  -0.020  0.00  0.00    +0.000 NA
ATOM      8  O   UNL     1       3.243  -0.964  -0.026  0.00  0.00    +0.000 OA
ATOM      9  H   UNL     1       4.955   3.806   0.412  0.00  0.00    +0.000 HD
ENDROOT
BRANCH   1  10
ATOM     10  O   UNL     1       1.139  -0.095  -0.009  0.00  0.00    +0.000 OA
ATOM     11  H   UNL     1       0.691   0.765  -0.033  0.00  0.00    +0.000 HD
ENDBRANCH   1  10
TORSDOF 1
