REMARK  Name = ligand_924345
REMARK  4 active torsions:
REMARK  status: ('A' for Active; 'I' for Inactive)
REMARK    1  A    between atoms: C_1  and  C_2
REMARK    2  A    between atoms: C_5  and  C_6
REMARK    3  A    between atoms: C_5  and  C_7
REMARK    4  A    between atoms: C_8  and  N_9
REMARK                            x       y       z     vdW  Elec       q    Type
REMARK                         _______ _______ _______ _____ _____    ______ ____
ROOT
ATOM      1  C   UNL     1       0.945  -0.157  -0.096  0.00  0.00    +0.000 C 
ATOM      2  C   UNL     1       2.460  -0.071   0.045  0.00  0.00    +0.000 C 
ATOM      3  N   UNL     1       2.997  -1.285   0.686  0.00  0.00    +0.000 NA
ATOM      4  C   UNL     1       4.221  -0.907   1.414  0.00  0.00    +0.000 C 
ATOM      5  C   UNL     1       4.429   0.606   1.222  0.00  0.00    +0.000 C 
ATOM      6  C   UNL     1       5.066   1.255   2.459  0.00  0.00    +0.000 C 
ATOM      7  C   UNL     1       5.371   0.865   0.023  0.00  0.00    +0.000 C 
ATOM      8  C   UNL     1       2.998   1.102   0.905  0.00  0.00    +0.000 C 
ATOM      9  H   UNL     1       3.206  -1.989  -0.021  0.00  0.00    +0.000 HD
ENDROOT
BRANCH   8  10
ATOM     10  N   UNL     1       2.204   1.316   2.128  0.00  0.00    +0.000 NA
ATOM     11  H   UNL     1       2.079   0.403   2.575  0.00  0.00    +0.000 HD
ATOM     12  H   UNL     1       1.264   1.615   1.872  0.00  0.00    +0.000 HD
ENDBRANCH   8  10
TORSDOF 1
