REMARK  Name = ligand_9243874
REMARK  2 active torsions:
REMARK  status: ('A' for Active; 'I' for Inactive)
REMARK    1  A    between atoms: O_1  and  C_2
REMARK    2  A    between atoms: C_2  and  C_3
REMARK                            x       y       z     vdW  Elec       q    Type
REMARK                         _______ _______ _______ _____ _____    ______ ____
ROOT
ATOM      1  C   UNL     1       2.715  -1.682  -0.215  0.00  0.00    +0.000 C 
ATOM      2  N   UNL     1       4.165  -1.977   0.165  0.00  0.00    +0.000 NA
ATOM      3  C   UNL     1       3.601  -2.895  -0.748  0.00  0.00    +0.000 C 
ATOM      4  C   UNL     1       2.958  -4.104  -0.195  0.00  0.00    +0.000 C 
ATOM      5  C   UNL     1       1.795  -3.880   0.431  0.00  0.00    +0.000 C 
ATOM      6  C   UNL     1       1.566  -2.419   0.443  0.00  0.00    +0.000 C 
ATOM      7  O   UNL     1       0.531  -1.905   0.823  0.00  0.00    +0.000 OA
ATOM      8  H   UNL     1       4.150  -2.184   1.148  0.00  0.00    +0.000 HD
ENDROOT
BRANCH   1   9
ATOM      9  C   UNL     1       2.602  -0.179  -0.329  0.00  0.00    +0.000 C 
BRANCH   9  10
ATOM     10  O   UNL     1       3.162   0.422   0.852  0.00  0.00    +0.000 OA
ATOM     11  H   UNL     1       3.890   0.998   0.569  0.00  0.00    +0.000 HD
ENDBRANCH   9  10
ENDBRANCH   1   9
TORSDOF 2
