REMARK  Name = ligand_924347
REMARK  2 active torsions:
REMARK  status: ('A' for Active; 'I' for Inactive)
REMARK    1  A    between atoms: C_1  and  C_2
REMARK    2  A    between atoms: C_8  and  N_9
REMARK                            x       y       z     vdW  Elec       q    Type
REMARK                         _______ _______ _______ _____ _____    ______ ____
ROOT
ATOM      1  C   UNL     1       1.015  -0.060  -0.108  0.00  0.00    +0.000 C 
ATOM      2  C   UNL     1       2.544   0.071  -0.045  0.00  0.00    +0.000 C 
ATOM      3  N   UNL     1       3.079  -1.226  -0.502  0.00  0.00    +0.000 NA
ATOM      4  C   UNL     1       4.537  -1.299  -0.610  0.00  0.00    +0.000 C 
ATOM      5  C   UNL     1       5.333  -0.520   0.446  0.00  0.00    +0.000 C 
ATOM      6  C   UNL     1       5.434   0.951   0.157  0.00  0.00    +0.000 C 
ATOM      7  C   UNL     1       4.503   1.712  -0.446  0.00  0.00    +0.000 C 
ATOM      8  C   UNL     1       3.094   1.319  -0.832  0.00  0.00    +0.000 C 
ATOM      9  H   UNL     1       2.678  -1.463  -1.410  0.00  0.00    +0.000 HD
ENDROOT
BRANCH   8  10
ATOM     10  N   UNL     1       2.278   2.529  -0.642  0.00  0.00    +0.000 NA
ATOM     11  H   UNL     1       2.131   2.672   0.355  0.00  0.00    +0.000 HD
ATOM     12  H   UNL     1       1.356   2.379  -1.047  0.00  0.00    +0.000 HD
ENDBRANCH   8  10
TORSDOF 1
