REMARK  Name = ligand_9243941
REMARK  1 active torsions:
REMARK  status: ('A' for Active; 'I' for Inactive)
REMARK    1  A    between atoms: C_2  and  C_3
REMARK                            x       y       z     vdW  Elec       q    Type
REMARK                         _______ _______ _______ _____ _____    ______ ____
ROOT
ATOM      1  C   UNL     1       3.052   1.082   1.027  0.00  0.00    +0.000 C 
ATOM      2  C   UNL     1       2.879   2.547   0.806  0.00  0.00    +0.000 C 
ATOM      3  C   UNL     1       2.701   3.477   1.973  0.00  0.00    +0.000 C 
ATOM      4  C   UNL     1       4.034   3.402   1.276  0.00  0.00    +0.000 C 
ATOM      5  C   UNL     1       4.990   2.300   1.254  0.00  0.00    +0.000 C 
ATOM      6  C   UNL     1       5.128   1.268   2.348  0.00  0.00    +0.000 C 
ATOM      7  N   UNL     1       4.514   0.990   1.053  0.00  0.00    +0.000 NA
ENDROOT
BRANCH   1   9
ATOM      8  O   UNL     1       1.583   0.477  -0.817  0.00  0.00    +0.000 OA
ATOM      9  C   UNL     1       2.536   0.198  -0.091  0.00  0.00    +0.000 C 
ENDBRANCH   1   9
TORSDOF 1
