REMARK  Name = ligand_9243614
REMARK  1 active torsions:
REMARK  status: ('A' for Active; 'I' for Inactive)
REMARK    1  A    between atoms: C_2  and  C_3
REMARK                            x       y       z     vdW  Elec       q    Type
REMARK                         _______ _______ _______ _____ _____    ______ ____
ROOT
ATOM      1  C   UNL     1       2.892   1.339  -0.380  0.00  0.00    +0.000 C 
ATOM      2  C   UNL     1       4.402   1.621  -0.100  0.00  0.00    +0.000 C 
ATOM      3  C   UNL     1       4.057   2.752  -1.141  0.00  0.00    +0.000 C 
ATOM      4  C   UNL     1       2.979   3.685  -0.530  0.00  0.00    +0.000 C 
ATOM      5  C   UNL     1       2.086   2.616   0.068  0.00  0.00    +0.000 C 
ATOM      6  O   UNL     1       1.099   2.790   0.754  0.00  0.00    +0.000 OA
ATOM      7  N   UNL     1       3.280   1.638  -1.857  0.00  0.00    +0.000 NA
ATOM      8  H   UNL     1       3.861   0.900  -2.271  0.00  0.00    +0.000 HD
ENDROOT
BRANCH   1  10
ATOM      9  O   UNL     1       2.726  -1.100  -0.250  0.00  0.00    +0.000 OA
ATOM     10  C   UNL     1       2.200   0.010  -0.129  0.00  0.00    +0.000 C 
ENDBRANCH   1  10
TORSDOF 1
