REMARK  Name = ligand_9243650
REMARK  1 active torsions:
REMARK  status: ('A' for Active; 'I' for Inactive)
REMARK    1  A    between atoms: C_2  and  C_3
REMARK                            x       y       z     vdW  Elec       q    Type
REMARK                         _______ _______ _______ _____ _____    ______ ____
ROOT
ATOM      1  C   UNL     1       2.707   0.990  -0.896  0.00  0.00    +0.000 C 
ATOM      2  C   UNL     1       2.665   2.223  -0.005  0.00  0.00    +0.000 C 
ATOM      3  C   UNL     1       2.372   3.145  -1.183  0.00  0.00    +0.000 C 
ATOM      4  C   UNL     1       3.559   2.801  -2.111  0.00  0.00    +0.000 C 
ATOM      5  N   UNL     1       3.813   1.340  -1.845  0.00  0.00    +0.000 NA
ATOM      6  C   UNL     1       1.155   2.449  -1.752  0.00  0.00    +0.000 C 
ATOM      7  C   UNL     1       1.386   1.130  -1.615  0.00  0.00    +0.000 C 
ATOM      8  H   UNL     1       4.694   1.278  -1.330  0.00  0.00    +0.000 HD
ENDROOT
BRANCH   1  10
ATOM      9  O   UNL     1       3.009  -0.494   1.005  0.00  0.00    +0.000 OA
ATOM     10  C   UNL     1       2.921  -0.345  -0.211  0.00  0.00    +0.000 C 
ENDBRANCH   1  10
TORSDOF 1
