REMARK  Name = ligand_9243126
REMARK  2 active torsions:
REMARK  status: ('A' for Active; 'I' for Inactive)
REMARK    1  A    between atoms: C_5  and  C_6
REMARK    2  A    between atoms: C_6  and  C_7
REMARK                            x       y       z     vdW  Elec       q    Type
REMARK                         _______ _______ _______ _____ _____    ______ ____
ROOT
ATOM      1  O   UNL     1       1.024   0.097  -0.096  0.00  0.00    +0.000 OA
ATOM      2  C   UNL     1       2.244   0.022  -0.058  0.00  0.00    +0.000 A 
ATOM      3  N   UNL     1       3.084   1.100  -0.029  0.00  0.00    +0.000 N 
ATOM      4  O   UNL     1       4.405   0.602  -0.031  0.00  0.00    +0.000 OA
ATOM      5  C   UNL     1       4.215  -0.738  -0.038  0.00  0.00    +0.000 A 
ATOM      6  N   UNL     1       2.984  -1.134  -0.041  0.00  0.00    +0.000 NA
ATOM      7  H   UNL     1       2.860   2.078  -0.112  0.00  0.00    +0.000 HD
ENDROOT
BRANCH   5   8
ATOM      8  C   UNL     1       5.442  -1.592  -0.070  0.00  0.00    +0.000 C 
BRANCH   8   9
ATOM      9  C   UNL     1       6.232  -1.265  -1.326  0.00  0.00    +0.000 C 
ATOM     10  C   UNL     1       6.910  -0.984  -2.404  0.00  0.00    +0.000 C 
ENDBRANCH   8   9
ENDBRANCH   5   8
TORSDOF 2
