REMARK  Name = ligand_9244954
REMARK  1 active torsions:
REMARK  status: ('A' for Active; 'I' for Inactive)
REMARK    1  A    between atoms: C_2  and  C_3
REMARK                            x       y       z     vdW  Elec       q    Type
REMARK                         _______ _______ _______ _____ _____    ______ ____
ROOT
ATOM      1  C   UNL     1       2.979  -1.286  -0.161  0.00  0.00    +0.000 C 
ATOM      2  C   UNL     1       4.098  -1.600   0.502  0.00  0.00    +0.000 C 
ATOM      3  C   UNL     1       4.924  -2.812   0.235  0.00  0.00    +0.000 C 
ATOM      4  N   UNL     1       4.250  -3.843  -0.537  0.00  0.00    +0.000 NA
ATOM      5  C   UNL     1       3.423  -3.345  -1.641  0.00  0.00    +0.000 C 
ATOM      6  C   UNL     1       2.535  -2.175  -1.258  0.00  0.00    +0.000 C 
ATOM      7  O   UNL     1       1.505  -1.911  -1.880  0.00  0.00    +0.000 OA
ATOM      8  H   UNL     1       3.699  -4.440   0.077  0.00  0.00    +0.000 HD
ENDROOT
BRANCH   1  10
ATOM      9  O   UNL     1       2.575   0.716   1.072  0.00  0.00    +0.000 OA
ATOM     10  C   UNL     1       2.244  -0.041   0.165  0.00  0.00    +0.000 C 
ENDBRANCH   1  10
TORSDOF 1
