REMARK  Name = ligand_9244455
REMARK  1 active torsions:
REMARK  status: ('A' for Active; 'I' for Inactive)
REMARK    1  A    between atoms: C_2  and  C_3
REMARK                            x       y       z     vdW  Elec       q    Type
REMARK                         _______ _______ _______ _____ _____    ______ ____
ROOT
ATOM      1  C   UNL     1       2.999  -0.651  -1.182  0.00  0.00    +0.000 A 
ATOM      2  C   UNL     1       2.683  -0.678  -2.552  0.00  0.00    +0.000 A 
ATOM      3  C   UNL     1       3.598  -1.565  -3.233  0.00  0.00    +0.000 A 
ATOM      4  C   UNL     1       4.409  -1.960  -2.235  0.00  0.00    +0.000 A 
ATOM      5  C   UNL     1       5.378  -2.864  -1.627  0.00  0.00    +0.000 C 
ATOM      6  C   UNL     1       4.839  -2.261  -0.298  0.00  0.00    +0.000 C 
ATOM      7  N   UNL     1       4.198  -1.280  -1.107  0.00  0.00    +0.000 N 
ENDROOT
BRANCH   1   9
ATOM      8  O   UNL     1       2.670  -0.121   1.094  0.00  0.00    +0.000 OA
ATOM      9  C   UNL     1       2.294  -0.074  -0.074  0.00  0.00    +0.000 C 
ENDBRANCH   1   9
TORSDOF 1
