REMARK  Name = ligand_9245842
REMARK  3 active torsions:
REMARK  status: ('A' for Active; 'I' for Inactive)
REMARK    1  A    between atoms: O_1  and  C_2
REMARK    2  A    between atoms: C_2  and  C_3
REMARK    3  A    between atoms: C_6  and  C_8
REMARK                            x       y       z     vdW  Elec       q    Type
REMARK                         _______ _______ _______ _____ _____    ______ ____
ROOT
ATOM      1  C   UNL     1       2.926   0.001  -1.351  0.00  0.00    +0.000 A 
ATOM      2  C   UNL     1       3.257  -1.062  -2.170  0.00  0.00    +0.000 A 
ATOM      3  O   UNL     1       3.683  -0.626  -3.384  0.00  0.00    +0.000 OA
ATOM      4  C   UNL     1       3.625   0.732  -3.354  0.00  0.00    +0.000 A 
ATOM      5  C   UNL     1       3.176   1.170  -2.132  0.00  0.00    +0.000 A 
ENDROOT
BRANCH   4   6
ATOM      6  C   UNL     1       4.014   1.436  -4.524  0.00  0.00    +0.000 C 
ATOM      7  N   UNL     1       4.329   2.029  -5.471  0.00  0.00    +0.000 NA
ENDBRANCH   4   6
BRANCH   1   8
ATOM      8  C   UNL     1       2.420  -0.064   0.043  0.00  0.00    +0.000 C 
BRANCH   8   9
ATOM      9  O   UNL     1       1.586   1.050   0.339  0.00  0.00    +0.000 OA
ATOM     10  H   UNL     1       1.271   0.929   1.250  0.00  0.00    +0.000 HD
ENDBRANCH   8   9
ENDBRANCH   1   8
TORSDOF 3
