REMARK  Name = ligand_9245508
REMARK  1 active torsions:
REMARK  status: ('A' for Active; 'I' for Inactive)
REMARK    1  A    between atoms: C_2  and  C_3
REMARK                            x       y       z     vdW  Elec       q    Type
REMARK                         _______ _______ _______ _____ _____    ______ ____
ROOT
ATOM      1  C   UNL     1       3.028  -1.380   0.287  0.00  0.00    +0.000 C 
ATOM      2  C   UNL     1       2.532  -2.517  -0.233  0.00  0.00    +0.000 C 
ATOM      3  N   UNL     1       2.979  -3.820  -0.155  0.00  0.00    +0.000 N 
ATOM      4  C   UNL     1       3.991  -4.309   0.770  0.00  0.00    +0.000 C 
ATOM      5  C   UNL     1       5.289  -3.504   0.688  0.00  0.00    +0.000 C 
ATOM      6  C   UNL     1       5.198  -2.135   1.298  0.00  0.00    +0.000 C 
ATOM      7  C   UNL     1       4.201  -1.251   1.133  0.00  0.00    +0.000 C 
ATOM      8  H   UNL     1       2.270  -4.513  -0.389  0.00  0.00    +0.000 HD
ENDROOT
BRANCH   1  10
ATOM      9  O   UNL     1       2.545   0.974   0.374  0.00  0.00    +0.000 OA
ATOM     10  C   UNL     1       2.251  -0.141  -0.043  0.00  0.00    +0.000 C 
ENDBRANCH   1  10
TORSDOF 1
