REMARK  Name = ligand_9246332
REMARK  1 active torsions:
REMARK  status: ('A' for Active; 'I' for Inactive)
REMARK    1  A    between atoms: C_2  and  C_3
REMARK                            x       y       z     vdW  Elec       q    Type
REMARK                         _______ _______ _______ _____ _____    ______ ____
ROOT
ATOM      1  C   UNK A   1       3.084   0.548   1.202  0.00  0.00    +0.000 C 
ATOM      2  N   UNK A   1       3.173   2.017   1.095  0.00  0.00    +0.000 NA
ATOM      3  C   UNK A   0       2.661   2.722   2.029  0.00  0.00    +0.000 C 
ATOM      4  N   UNK A   1       2.070   2.295   3.168  0.00  0.00    +0.000 N 
ATOM      5  C   UNK A   1       1.843   0.900   3.450  0.00  0.00    +0.000 C 
ATOM      6  C   UNK A   1       2.643   0.004   2.539  0.00  0.00    +0.000 C 
ATOM      7  O   UNK A   1       2.843  -1.178   2.841  0.00  0.00    +0.000 OA
ATOM      8  H   UNK A   1       1.577   2.966   3.749  0.00  0.00    +0.000 HD
ENDROOT
BRANCH   1  10
ATOM      9  O   UNK A   1       0.987  -0.142   0.196  0.00  0.00    +0.000 OA
ATOM     10  C   UNK A   1       2.192   0.081   0.078  0.00  0.00    +0.000 C 
ENDBRANCH   1  10
TORSDOF 1
