REMARK  Name = ligand_9246362
REMARK  3 active torsions:
REMARK  status: ('A' for Active; 'I' for Inactive)
REMARK    1  A    between atoms: O_1  and  C_2
REMARK    2  A    between atoms: C_2  and  C_3
REMARK    3  A    between atoms: C_7  and  C_8
REMARK                            x       y       z     vdW  Elec       q    Type
REMARK                         _______ _______ _______ _____ _____    ______ ____
ROOT
ATOM      1  C   UNK     1       2.842   0.777  -1.077  0.00  0.00    +0.000 C 
ATOM      2  N   UNK     1       4.294   1.064  -1.136  0.00  0.00    +0.000 N 
ATOM      3  C   UNK     1       4.085   2.350  -1.540  0.00  0.00    +0.000 C 
ATOM      4  O   UNK     1       4.805   3.095  -2.161  0.00  0.00    +0.000 OA
ATOM      5  C   UNK     1       2.628   2.320  -0.983  0.00  0.00    +0.000 C 
ATOM      6  H   UNK     1       5.009   0.522  -1.602  0.00  0.00    +0.000 HD
ENDROOT
BRANCH   5   7
ATOM      7  C   UNK     1       2.521   2.915   0.337  0.00  0.00    +0.000 C 
ATOM      8  C   UNK     1       2.486   3.372   1.452  0.00  0.00    +0.000 C 
ENDBRANCH   5   7
BRANCH   1   9
ATOM      9  C   UNK     1       2.452  -0.124   0.082  0.00  0.00    +0.000 C 
BRANCH   9  10
ATOM     10  O   UNK     1       3.098  -1.385  -0.077  0.00  0.00    +0.000 OA
ATOM     11  H   UNK     1       2.763  -1.967   0.626  0.00  0.00    +0.000 HD
ENDBRANCH   9  10
ENDBRANCH   1   9
TORSDOF 3
