REMARK  Name = ligand_924636
REMARK  3 active torsions:
REMARK  status: ('A' for Active; 'I' for Inactive)
REMARK    1  A    between atoms: C_1  and  C_2
REMARK    2  A    between atoms: C_4  and  C_8
REMARK    3  A    between atoms: N_6  and  N_7
REMARK                            x       y       z     vdW  Elec       q    Type
REMARK                         _______ _______ _______ _____ _____    ______ ____
ROOT
ATOM      1  C   UNL     1       1.116   0.115   0.006  0.00  0.00    +0.000 C 
ATOM      2  C   UNL     1       2.614   0.092  -0.058  0.00  0.00    +0.000 C 
ATOM      3  N   UNL     1       3.271  -1.049  -0.051  0.00  0.00    +0.000 NA
ATOM      4  C   UNL     1       4.710  -0.652  -0.121  0.00  0.00    +0.000 C 
ATOM      5  C   UNL     1       4.752   0.866  -0.407  0.00  0.00    +0.000 C 
ATOM      6  N   UNL     1       3.370   1.236  -0.174  0.00  0.00    +0.000 N 
ENDROOT
BRANCH   6   7
ATOM      7  N   UNL     1       2.926   2.469   0.321  0.00  0.00    +0.000 NA
ATOM      8  H   UNL     1       3.674   3.163   0.294  0.00  0.00    +0.000 HD
ATOM      9  H   UNL     1       2.658   2.390   1.305  0.00  0.00    +0.000 HD
ENDBRANCH   6   7
BRANCH   4  10
ATOM     10  C   UNL     1       5.305  -0.942   1.247  0.00  0.00    +0.000 C 
ATOM     11  C   UNL     1       5.815  -1.191   2.421  0.00  0.00    +0.000 C 
ENDBRANCH   4  10
TORSDOF 2
