REMARK  Name = ligand_9247550
REMARK  3 active torsions:
REMARK  status: ('A' for Active; 'I' for Inactive)
REMARK    1  A    between atoms: O_1  and  C_2
REMARK    2  A    between atoms: C_2  and  C_3
REMARK    3  A    between atoms: C_4  and  C_5
REMARK                            x       y       z     vdW  Elec       q    Type
REMARK                         _______ _______ _______ _____ _____    ______ ____
ROOT
ATOM      1  C   UNL     1       4.846   3.090   0.677  0.00  0.00    +0.000 C 
ATOM      2  C   UNL     1       4.401   3.611   2.037  0.00  0.00    +0.000 C 
ATOM      3  C   UNL     1       4.743   5.087   1.953  0.00  0.00    +0.000 C 
ATOM      4  C   UNL     1       4.605   5.426   0.476  0.00  0.00    +0.000 C 
ATOM      5  N   UNL     1       4.410   4.158  -0.222  0.00  0.00    +0.000 NA
ATOM      6  H   UNL     1       4.948   4.127  -1.086  0.00  0.00    +0.000 HD
ENDROOT
BRANCH   1   8
ATOM      7  C   UNL     1       3.511   1.425  -0.704  0.00  0.00    +0.000 C 
ATOM      8  C   UNL     1       4.275   1.738   0.357  0.00  0.00    +0.000 C 
BRANCH   7   9
ATOM      9  C   UNL     1       2.971   0.068  -0.994  0.00  0.00    +0.000 C 
BRANCH   9  10
ATOM     10  O   UNL     1       3.470  -0.333  -2.260  0.00  0.00    +0.000 OA
ATOM     11  H   UNL     1       3.123  -1.226  -2.424  0.00  0.00    +0.000 HD
ENDBRANCH   9  10
ENDBRANCH   7   9
ENDBRANCH   1   8
TORSDOF 3
