REMARK  Name = ligand_9247693
REMARK  3 active torsions:
REMARK  status: ('A' for Active; 'I' for Inactive)
REMARK    1  A    between atoms: C_2  and  C_3
REMARK    2  A    between atoms: C_3  and  C_4
REMARK    3  A    between atoms: C_4  and  C_5
REMARK                            x       y       z     vdW  Elec       q    Type
REMARK                         _______ _______ _______ _____ _____    ______ ____
ROOT
ATOM      1  C   UNL     1       5.282  -2.282   0.135  0.00  0.00    +0.000 C 
ATOM      2  C   UNL     1       6.768  -2.206   0.027  0.00  0.00    +0.000 C 
ATOM      3  N   UNL     1       5.970  -2.806  -1.006  0.00  0.00    +0.000 N 
ATOM      4  C   UNL     1       6.059  -4.169  -1.241  0.00  0.00    +0.000 C 
ATOM      5  O   UNL     1       6.458  -5.028  -0.467  0.00  0.00    +0.000 OA
ENDROOT
BRANCH   1   6
ATOM      6  C   UNL     1       4.476  -1.028  -0.025  0.00  0.00    +0.000 C 
BRANCH   6   7
ATOM      7  C   UNL     1       2.978  -1.297  -0.049  0.00  0.00    +0.000 C 
BRANCH   7   9
ATOM      8  O   UNL     1       2.671   1.093  -0.346  0.00  0.00    +0.000 OA
ATOM      9  C   UNL     1       2.181  -0.026  -0.234  0.00  0.00    +0.000 C 
ENDBRANCH   7   9
ENDBRANCH   6   7
ENDBRANCH   1   6
TORSDOF 3
