REMARK  Name = ligand_9247058
REMARK  1 active torsions:
REMARK  status: ('A' for Active; 'I' for Inactive)
REMARK    1  A    between atoms: C_2  and  C_3
REMARK                            x       y       z     vdW  Elec       q    Type
REMARK                         _______ _______ _______ _____ _____    ______ ____
ROOT
ATOM      1  C   UNL     1       3.051   1.019   0.661  0.00  0.00    +0.000 C 
ATOM      2  C   UNL     1       4.383   1.118   0.540  0.00  0.00    +0.000 C 
ATOM      3  C   UNL     1       5.098   2.296   1.001  0.00  0.00    +0.000 C 
ATOM      4  C   UNL     1       6.406   2.368   0.725  0.00  0.00    +0.000 C 
ATOM      5  N   UNL     1       7.077   1.379   0.051  0.00  0.00    +0.000 N 
ATOM      6  N   UNL     1       6.530   0.181  -0.307  0.00  0.00    +0.000 NA
ATOM      7  C   UNL     1       5.255   0.058  -0.070  0.00  0.00    +0.000 C 
ATOM      8  H   UNL     1       8.079   1.505  -0.095  0.00  0.00    +0.000 HD
ENDROOT
BRANCH   1  10
ATOM      9  O   UNL     1       0.997  -0.081   0.350  0.00  0.00    +0.000 OA
ATOM     10  C   UNL     1       2.210  -0.094   0.178  0.00  0.00    +0.000 C 
ENDBRANCH   1  10
TORSDOF 1
