REMARK  Name = ligand_9247555
REMARK  2 active torsions:
REMARK  status: ('A' for Active; 'I' for Inactive)
REMARK    1  A    between atoms: C_2  and  C_3
REMARK    2  A    between atoms: C_4  and  C_5
REMARK                            x       y       z     vdW  Elec       q    Type
REMARK                         _______ _______ _______ _____ _____    ______ ____
ROOT
ATOM      1  C   UNL     1       4.359   3.329   1.637  0.00  0.00    +0.000 A 
ATOM      2  C   UNL     1       4.039   4.656   1.449  0.00  0.00    +0.000 A 
ATOM      3  C   UNL     1       4.945   5.426   2.220  0.00  0.00    +0.000 A 
ATOM      4  C   UNL     1       5.795   4.546   2.852  0.00  0.00    +0.000 A 
ATOM      5  N   UNL     1       5.434   3.274   2.486  0.00  0.00    +0.000 N 
ATOM      6  H   UNL     1       5.883   2.425   2.802  0.00  0.00    +0.000 HD
ENDROOT
BRANCH   1   8
ATOM      7  C   UNL     1       3.108   1.272   0.602  0.00  0.00    +0.000 C 
ATOM      8  C   UNL     1       3.704   2.199   1.081  0.00  0.00    +0.000 C 
BRANCH   7  10
ATOM      9  O   UNL     1       1.142   0.183   0.037  0.00  0.00    +0.000 OA
ATOM     10  C   UNL     1       2.364   0.186   0.022  0.00  0.00    +0.000 C 
ENDBRANCH   7  10
ENDBRANCH   1   8
TORSDOF 2
