REMARK  Name = ligand_9247019
REMARK  2 active torsions:
REMARK  status: ('A' for Active; 'I' for Inactive)
REMARK    1  A    between atoms: O_1  and  C_2
REMARK    2  A    between atoms: C_2  and  C_3
REMARK                            x       y       z     vdW  Elec       q    Type
REMARK                         _______ _______ _______ _____ _____    ______ ____
ROOT
ATOM      1  C   UNL     1       3.043  -1.447  -0.014  0.00  0.00    +0.000 C 
ATOM      2  C   UNL     1       4.350  -1.729  -0.098  0.00  0.00    +0.000 C 
ATOM      3  C   UNL     1       4.989  -3.076  -0.296  0.00  0.00    +0.000 C 
ATOM      4  C   UNL     1       6.397  -2.748  -0.825  0.00  0.00    +0.000 C 
ATOM      5  N   UNL     1       6.656  -1.381  -0.386  0.00  0.00    +0.000 N 
ATOM      6  C   UNL     1       5.478  -0.755  -0.093  0.00  0.00    +0.000 C 
ATOM      7  N   UNL     1       5.370   0.500   0.137  0.00  0.00    +0.000 NA
ATOM      8  H   UNL     1       7.316  -0.848  -0.937  0.00  0.00    +0.000 HD
ATOM      9  H   UNL     1       6.305   0.913   0.115  0.00  0.00    +0.000 HD
ENDROOT
BRANCH   1  10
ATOM     10  C   UNL     1       2.476  -0.076   0.132  0.00  0.00    +0.000 C 
BRANCH  10  11
ATOM     11  O   UNL     1       1.058  -0.192   0.132  0.00  0.00    +0.000 OA
ATOM     12  H   UNL     1       0.719   0.711   0.254  0.00  0.00    +0.000 HD
ENDBRANCH  10  11
ENDBRANCH   1  10
TORSDOF 2
