REMARK  Name = ligand_9247001
REMARK  4 active torsions:
REMARK  status: ('A' for Active; 'I' for Inactive)
REMARK    1  A    between atoms: O_1  and  C_2
REMARK    2  A    between atoms: C_2  and  C_3
REMARK    3  A    between atoms: C_3  and  C_4
REMARK    4  A    between atoms: C_4  and  C_8
REMARK                            x       y       z     vdW  Elec       q    Type
REMARK                         _______ _______ _______ _____ _____    ______ ____
ROOT
ATOM      1  C   UNL     1       4.435   0.768   1.282  0.00  0.00    +0.000 C 
ATOM      2  C   UNL     1       5.345  -0.275   1.976  0.00  0.00    +0.000 C 
ATOM      3  C   UNL     1       6.010   0.964   2.595  0.00  0.00    +0.000 C 
ATOM      4  N   UNL     1       4.681   1.638   2.469  0.00  0.00    +0.000 NA
ATOM      5  H   UNL     1       4.755   2.639   2.288  0.00  0.00    +0.000 HD
ENDROOT
BRANCH   1   6
ATOM      6  C   UNL     1       2.583   1.871  -0.785  0.00  0.00    +0.000 C 
ATOM      7  N   UNL     1       3.000   2.270  -1.791  0.00  0.00    +0.000 NA
ENDBRANCH   1   6
BRANCH   1   8
ATOM      8  C   UNL     1       3.003   0.287   1.105  0.00  0.00    +0.000 C 
BRANCH   8   9
ATOM      9  C   UNL     1       2.069   1.327   0.488  0.00  0.00    +0.000 C 
BRANCH   9  10
ATOM     10  O   UNL     1       0.796   0.690   0.273  0.00  0.00    +0.000 OA
ATOM     11  H   UNL     1       0.896   0.076  -0.471  0.00  0.00    +0.000 HD
ENDBRANCH   9  10
ENDBRANCH   8   9
ENDBRANCH   1   8
TORSDOF 4
