REMARK  Name = ligand_9247881
REMARK  2 active torsions:
REMARK  status: ('A' for Active; 'I' for Inactive)
REMARK    1  A    between atoms: C_2  and  C_3
REMARK    2  A    between atoms: C_4  and  C_5
REMARK                            x       y       z     vdW  Elec       q    Type
REMARK                         _______ _______ _______ _____ _____    ______ ____
ROOT
ATOM      1  C   UNL     1       4.227   2.166  -2.894  0.00  0.00    +0.000 A 
ATOM      2  C   UNL     1       4.180   3.511  -3.093  0.00  0.00    +0.000 A 
ATOM      3  O   UNL     1       4.978   3.779  -4.158  0.00  0.00    +0.000 OA
ATOM      4  N   UNL     1       5.518   2.568  -4.607  0.00  0.00    +0.000 NA
ATOM      5  N   UNL     1       5.047   1.602  -3.821  0.00  0.00    +0.000 NA
ENDROOT
BRANCH   1   7
ATOM      6  C   UNL     1       2.975   0.765  -1.072  0.00  0.00    +0.000 C 
ATOM      7  C   UNL     1       3.561   1.398  -1.909  0.00  0.00    +0.000 C 
BRANCH   6   9
ATOM      8  O   UNL     1       1.030   0.059  -0.041  0.00  0.00    +0.000 OA
ATOM      9  C   UNL     1       2.251   0.026  -0.073  0.00  0.00    +0.000 C 
ENDBRANCH   6   9
ENDBRANCH   1   7
TORSDOF 2
