REMARK  Name = ligand_9247082
REMARK  3 active torsions:
REMARK  status: ('A' for Active; 'I' for Inactive)
REMARK    1  A    between atoms: C_2  and  C_3
REMARK    2  A    between atoms: C_3  and  C_4
REMARK    3  A    between atoms: C_4  and  C_8
REMARK                            x       y       z     vdW  Elec       q    Type
REMARK                         _______ _______ _______ _____ _____    ______ ____
ROOT
ATOM      1  C   UNL     1       4.070  -0.688   1.796  0.00  0.00    +0.000 C 
ATOM      2  C   UNL     1       5.129  -1.765   1.491  0.00  0.00    +0.000 C 
ATOM      3  C   UNL     1       6.124  -0.616   1.665  0.00  0.00    +0.000 C 
ATOM      4  O   UNL     1       5.055   0.357   1.529  0.00  0.00    +0.000 OA
ENDROOT
BRANCH   1   5
ATOM      5  C   UNL     1       0.636  -1.427   0.227  0.00  0.00    +0.000 C 
ATOM      6  N   UNL     1      -0.327  -1.234  -0.397  0.00  0.00    +0.000 NA
ENDBRANCH   1   5
BRANCH   1   7
ATOM      7  C   UNL     1       2.865  -0.510   0.887  0.00  0.00    +0.000 C 
BRANCH   7   9
ATOM      8  O   UNL     1       2.022  -2.639   1.660  0.00  0.00    +0.000 OA
ATOM      9  C   UNL     1       1.857  -1.625   0.993  0.00  0.00    +0.000 C 
ENDBRANCH   7   9
ENDBRANCH   1   7
TORSDOF 3
