REMARK  Name = ligand_9248396
REMARK  5 active torsions:
REMARK  status: ('A' for Active; 'I' for Inactive)
REMARK    1  A    between atoms: O_1  and  C_2
REMARK    2  A    between atoms: C_2  and  C_3
REMARK    3  A    between atoms: C_3  and  C_8
REMARK    4  A    between atoms: C_4  and  C_5
REMARK    5  A    between atoms: C_5  and  C_6
REMARK                            x       y       z     vdW  Elec       q    Type
REMARK                         _______ _______ _______ _____ _____    ______ ____
ROOT
ATOM      1  C   UNL     1       2.891  -0.362   0.720  0.00  0.00    +0.000 C 
ATOM      2  C   UNL     1       2.544  -1.011   1.850  0.00  0.00    +0.000 C 
ENDROOT
BRANCH   1   3
ATOM      3  C   UNL     1       3.672  -1.451   2.621  0.00  0.00    +0.000 C 
ATOM      4  C   UNL     1       4.738  -1.716   3.090  0.00  0.00    +0.000 C 
ENDBRANCH   1   3
BRANCH   1   5
ATOM      5  C   UNL     1       2.074   0.262  -0.363  0.00  0.00    +0.000 C 
BRANCH   5   6
ATOM      6  O   UNL     1       0.686   0.142  -0.128  0.00  0.00    +0.000 OA
ATOM      7  H   UNL     1       0.245   0.578  -0.879  0.00  0.00    +0.000 HD
ENDBRANCH   5   6
ENDBRANCH   1   5
BRANCH   2   8
ATOM      8  C   UNL     1       1.097  -1.241   2.250  0.00  0.00    +0.000 C 
BRANCH   8   9
ATOM      9  C   UNL     1       0.873  -1.973   3.510  0.00  0.00    +0.000 C 
ATOM     10  N   UNL     1       0.612  -2.543   4.488  0.00  0.00    +0.000 NA
ENDBRANCH   8   9
ENDBRANCH   2   8
TORSDOF 5
