REMARK  Name = ligand_9248357
REMARK  3 active torsions:
REMARK  status: ('A' for Active; 'I' for Inactive)
REMARK    1  A    between atoms: C_2  and  C_3
REMARK    2  A    between atoms: C_4  and  C_5
REMARK    3  A    between atoms: C_4  and  N_7
REMARK                            x       y       z     vdW  Elec       q    Type
REMARK                         _______ _______ _______ _____ _____    ______ ____
ROOT
ATOM      1  C   UNL     1       3.129  -0.909  -1.023  0.00  0.00    +0.000 C 
ATOM      2  C   UNL     1       4.465  -0.822  -1.010  0.00  0.00    +0.000 C 
ENDROOT
BRANCH   2   3
ATOM      3  N   UNL     1       5.452  -1.282  -1.865  0.00  0.00    +0.000 N 
ATOM      4  C   UNL     1       5.256  -1.298  -3.315  0.00  0.00    +0.000 C 
ATOM      5  C   UNL     1       5.375  -2.567  -2.528  0.00  0.00    +0.000 C 
ENDBRANCH   2   3
BRANCH   1   7
ATOM      6  O   UNL     1       1.079  -0.254  -0.070  0.00  0.00    +0.000 OA
ATOM      7  C   UNL     1       2.307  -0.148  -0.066  0.00  0.00    +0.000 C 
ENDBRANCH   1   7
BRANCH   2   8
ATOM      8  C   UNL     1       5.225   0.060  -0.032  0.00  0.00    +0.000 C 
ATOM      9  C   UNL     1       5.877   0.816   0.806  0.00  0.00    +0.000 C 
ENDBRANCH   2   8
TORSDOF 3
