REMARK  Name = ligand_9248967
REMARK  3 active torsions:
REMARK  status: ('A' for Active; 'I' for Inactive)
REMARK    1  A    between atoms: O_1  and  C_2
REMARK    2  A    between atoms: C_2  and  C_3
REMARK    3  A    between atoms: C_4  and  N_5
REMARK                            x       y       z     vdW  Elec       q    Type
REMARK                         _______ _______ _______ _____ _____    ______ ____
ROOT
ATOM      1  C   UNL     1       2.895   1.191  -0.708  0.00  0.00    +0.000 C 
ATOM      2  C   UNL     1       4.112   1.289  -1.274  0.00  0.00    +0.000 C 
ENDROOT
BRANCH   2   3
ATOM      3  N   UNL     1       4.571   2.370  -2.028  0.00  0.00    +0.000 N 
ATOM      4  C   UNL     1       5.839   2.436  -2.591  0.00  0.00    +0.000 A 
ATOM      5  C   UNL     1       5.967   3.654  -3.209  0.00  0.00    +0.000 A 
ATOM      6  C   UNL     1       4.728   4.271  -3.008  0.00  0.00    +0.000 A 
ATOM      7  N   UNL     1       3.880   3.512  -2.316  0.00  0.00    +0.000 NA
ENDBRANCH   2   3
BRANCH   1   8
ATOM      8  C   UNL     1       2.410   0.046   0.118  0.00  0.00    +0.000 C 
BRANCH   8   9
ATOM      9  O   UNL     1       3.414  -0.951   0.238  0.00  0.00    +0.000 OA
ATOM     10  H   UNL     1       3.030  -1.671   0.766  0.00  0.00    +0.000 HD
ENDBRANCH   8   9
ENDBRANCH   1   8
TORSDOF 3
