REMARK  Name = ligand_9248641
REMARK  4 active torsions:
REMARK  status: ('A' for Active; 'I' for Inactive)
REMARK    1  A    between atoms: O_1  and  C_2
REMARK    2  A    between atoms: C_2  and  C_3
REMARK    3  A    between atoms: C_2  and  C_5
REMARK    4  A    between atoms: C_2  and  C_7
REMARK                            x       y       z     vdW  Elec       q    Type
REMARK                         _______ _______ _______ _____ _____    ______ ____
ROOT
ATOM      1  C   UNL     1       2.374   0.001  -0.089  0.00  0.00    +0.000 C 
ENDROOT
BRANCH   1   2
ATOM      2  C   UNL     1       2.919  -0.265   1.304  0.00  0.00    +0.000 C 
ATOM      3  C   UNL     1       4.400  -0.382   1.611  0.00  0.00    +0.000 C 
ATOM      4  N   UNL     1       3.543  -1.558   1.653  0.00  0.00    +0.000 NA
ATOM      5  H   UNL     1       3.307  -1.821   2.611  0.00  0.00    +0.000 HD
ENDBRANCH   1   2
BRANCH   1   6
ATOM      6  O   UNL     1       0.942   0.018   0.004  0.00  0.00    +0.000 OA
ATOM      7  H   UNL     1       0.612   0.125  -0.905  0.00  0.00    +0.000 HD
ENDBRANCH   1   6
BRANCH   1   8
ATOM      8  C   UNL     1       2.791  -0.957  -1.190  0.00  0.00    +0.000 C 
ATOM      9  C   UNL     1       2.090  -2.021  -1.614  0.00  0.00    +0.000 C 
ENDBRANCH   1   8
BRANCH   1  10
ATOM     10  C   UNL     1       2.881   1.400  -0.399  0.00  0.00    +0.000 C 
ATOM     11  N   UNL     1       3.301   2.561  -0.657  0.00  0.00    +0.000 NA
ENDBRANCH   1  10
TORSDOF 4
