REMARK  Name = ligand_9248023
REMARK  3 active torsions:
REMARK  status: ('A' for Active; 'I' for Inactive)
REMARK    1  A    between atoms: O_1  and  C_2
REMARK    2  A    between atoms: C_2  and  C_3
REMARK    3  A    between atoms: C_3  and  C_5
REMARK                            x       y       z     vdW  Elec       q    Type
REMARK                         _______ _______ _______ _____ _____    ______ ____
ROOT
ATOM      1  C   UNL     1       2.855  -1.478   0.479  0.00  0.00    +0.000 C 
ATOM      2  C   UNL     1       2.011  -2.481   0.772  0.00  0.00    +0.000 C 
ENDROOT
BRANCH   1   3
ATOM      3  C   UNL     1       4.322  -1.710   0.520  0.00  0.00    +0.000 C 
ATOM      4  N   UNL     1       5.225  -0.803   0.306  0.00  0.00    +0.000 NA
ATOM      5  N   UNL     1       6.515  -1.400   0.441  0.00  0.00    +0.000 NA
ATOM      6  C   UNL     1       6.349  -2.648   0.730  0.00  0.00    +0.000 C 
ATOM      7  C   UNL     1       4.925  -3.048   0.818  0.00  0.00    +0.000 C 
ENDBRANCH   1   3
BRANCH   1   8
ATOM      8  C   UNL     1       2.444  -0.081   0.101  0.00  0.00    +0.000 C 
BRANCH   8   9
ATOM      9  O   UNL     1       1.025   0.053   0.093  0.00  0.00    +0.000 OA
ATOM     10  H   UNL     1       0.839   0.978  -0.141  0.00  0.00    +0.000 HD
ENDBRANCH   8   9
ENDBRANCH   1   8
TORSDOF 3
