REMARK  Name = ligand_9248272
REMARK  5 active torsions:
REMARK  status: ('A' for Active; 'I' for Inactive)
REMARK    1  A    between atoms: O_1  and  C_2
REMARK    2  A    between atoms: C_2  and  C_3
REMARK    3  A    between atoms: C_3  and  C_4
REMARK    4  A    between atoms: C_4  and  C_5
REMARK    5  A    between atoms: C_7  and  C_8
REMARK                            x       y       z     vdW  Elec       q    Type
REMARK                         _______ _______ _______ _____ _____    ______ ____
ROOT
ATOM      1  C   UNL     1       2.881   1.285   0.628  0.00  0.00    +0.000 C 
ATOM      2  C   UNL     1       4.191   1.572   0.768  0.00  0.00    +0.000 C 
ENDROOT
BRANCH   2   3
ATOM      3  C   UNL     1       4.698   2.859   1.398  0.00  0.00    +0.000 C 
ATOM      4  N   UNL     1       5.118   3.927   1.921  0.00  0.00    +0.000 NA
ENDBRANCH   2   3
BRANCH   1   5
ATOM      5  C   UNL     1       2.406   0.011  -0.024  0.00  0.00    +0.000 C 
BRANCH   5   6
ATOM      6  O   UNL     1       3.506  -0.794  -0.428  0.00  0.00    +0.000 OA
ATOM      7  H   UNL     1       3.134  -1.605  -0.814  0.00  0.00    +0.000 HD
ENDBRANCH   5   6
ENDBRANCH   1   5
BRANCH   1   8
ATOM      8  C   UNL     1       1.779   2.186   1.143  0.00  0.00    +0.000 C 
BRANCH   8   9
ATOM      9  C   UNL     1       1.303   3.253   0.192  0.00  0.00    +0.000 C 
ATOM     10  C   UNL     1       1.689   3.479  -1.072  0.00  0.00    +0.000 C 
ENDBRANCH   8   9
ENDBRANCH   1   8
TORSDOF 5
