REMARK  Name = ligand_9249602
REMARK  4 active torsions:
REMARK  status: ('A' for Active; 'I' for Inactive)
REMARK    1  A    between atoms: C_2  and  C_3
REMARK    2  A    between atoms: C_3  and  N_4
REMARK    3  A    between atoms: N_4  and  C_5
REMARK    4  A    between atoms: C_7  and  C_8
REMARK                            x       y       z     vdW  Elec       q    Type
REMARK                         _______ _______ _______ _____ _____    ______ ____
ROOT
ATOM      1  N   UNL     1       4.294  -0.978  -0.670  0.00  0.00    +0.000 NA
ATOM      2  H   UNL     1       4.918  -1.138   0.124  0.00  0.00    +0.000 HD
ENDROOT
BRANCH   1   3
ATOM      3  C   UNL     1       4.627  -1.898  -1.796  0.00  0.00    +0.000 C 
ATOM      4  C   UNL     1       4.737  -3.367  -1.429  0.00  0.00    +0.000 C 
ATOM      5  C   UNL     1       5.967  -2.610  -1.815  0.00  0.00    +0.000 C 
BRANCH   5   6
ATOM      6  C   UNL     1       4.101  -1.543  -3.112  0.00  0.00    +0.000 C 
ATOM      7  N   UNL     1       3.679  -1.263  -4.154  0.00  0.00    +0.000 NA
ENDBRANCH   5   6
ENDBRANCH   1   3
BRANCH   1   8
ATOM      8  C   UNL     1       2.908  -1.192  -0.218  0.00  0.00    +0.000 C 
BRANCH   8  10
ATOM      9  O   UNL     1       2.786  -0.509   2.089  0.00  0.00    +0.000 OA
ATOM     10  C   UNL     1       2.586  -0.241   0.907  0.00  0.00    +0.000 C 
ENDBRANCH   8  10
ENDBRANCH   1   8
TORSDOF 4
