REMARK  Name = ligand_9249884
REMARK  5 active torsions:
REMARK  status: ('A' for Active; 'I' for Inactive)
REMARK    1  A    between atoms: O_1  and  C_2
REMARK    2  A    between atoms: C_2  and  C_3
REMARK    3  A    between atoms: C_2  and  C_5
REMARK    4  A    between atoms: C_6  and  C_7
REMARK    5  A    between atoms: C_7  and  C_8
REMARK                            x       y       z     vdW  Elec       q    Type
REMARK                         _______ _______ _______ _____ _____    ______ ____
ROOT
ATOM      1  C   UNL     1       2.363   0.026  -0.078  0.00  0.00    +0.000 C 
ENDROOT
BRANCH   1   2
ATOM      2  O   UNL     1       0.933  -0.038  -0.066  0.00  0.00    +0.000 OA
ATOM      3  H   UNL     1       0.628   0.350  -0.903  0.00  0.00    +0.000 HD
ENDBRANCH   1   2
BRANCH   1   4
ATOM      4  C   UNL     1       2.840   1.395  -0.378  0.00  0.00    +0.000 C 
ATOM      5  N   UNL     1       3.206   2.467  -0.634  0.00  0.00    +0.000 NA
ENDBRANCH   1   4
BRANCH   1   6
ATOM      6  C   UNL     1       2.869  -0.466   1.268  0.00  0.00    +0.000 C 
ATOM      7  C   UNL     1       3.304  -0.888   2.423  0.00  0.00    +0.000 C 
BRANCH   7   8
ATOM      8  C   UNL     1       3.811  -1.380   3.769  0.00  0.00    +0.000 C 
BRANCH   8   9
ATOM      9  C   UNL     1       5.124  -0.734   4.110  0.00  0.00    +0.000 C 
ATOM     10  O   UNL     1       6.151  -1.364   4.341  0.00  0.00    +0.000 OA
ENDBRANCH   8   9
ENDBRANCH   7   8
ENDBRANCH   1   6
TORSDOF 5
