REMARK  Name = ligand_9250621
REMARK  0 active torsions:
REMARK  status: ('A' for Active; 'I' for Inactive)
REMARK                            x       y       z     vdW  Elec       q    Type
REMARK                         _______ _______ _______ _____ _____    ______ ____
ROOT
ATOM      1  O   UNL     1       1.451   1.011   0.558  0.00  0.00    +0.000 OA
ATOM      2  C   UNL     1       2.462   0.493   0.096  0.00  0.00    +0.000 C 
ATOM      3  N   UNL     1       3.261   1.027  -0.885  0.00  0.00    +0.000 N 
ATOM      4  C   UNL     1       2.993   2.316  -1.469  0.00  0.00    +0.000 C 
ATOM      5  C   UNL     1       2.052   2.517  -2.620  0.00  0.00    +0.000 C 
ATOM      6  C   UNL     1       3.520   2.298  -2.877  0.00  0.00    +0.000 C 
ATOM      7  C   UNL     1       4.100   0.926  -3.095  0.00  0.00    +0.000 C 
ATOM      8  C   UNL     1       3.963   0.194  -1.761  0.00  0.00    +0.000 C 
ATOM      9  O   UNL     1       4.418  -0.913  -1.515  0.00  0.00    +0.000 OA
ENDROOT
TORSDOF 0
