REMARK  Name = ligand_9250640
REMARK  0 active torsions:
REMARK  status: ('A' for Active; 'I' for Inactive)
REMARK                            x       y       z     vdW  Elec       q    Type
REMARK                         _______ _______ _______ _____ _____    ______ ____
ROOT
ATOM      1  O   UNL     1       2.647  -0.993   0.291  0.00  0.00    +0.000 OA
ATOM      2  C   UNL     1       2.306   0.121  -0.081  0.00  0.00    +0.000 C 
ATOM      3  N   UNL     1       2.544   1.320   0.570  0.00  0.00    +0.000 N 
ATOM      4  C   UNL     1       2.871   1.320   1.965  0.00  0.00    +0.000 C 
ATOM      5  C   UNL     1       2.570   2.525   2.801  0.00  0.00    +0.000 C 
ATOM      6  C   UNL     1       3.668   3.549   2.484  0.00  0.00    +0.000 C 
ATOM      7  C   UNL     1       4.223   3.108   1.152  0.00  0.00    +0.000 C 
ATOM      8  O   UNL     1       4.916   3.763   0.392  0.00  0.00    +0.000 OA
ATOM      9  C   UNL     1       3.876   1.690   0.935  0.00  0.00    +0.000 C 
ENDROOT
TORSDOF 0
