REMARK  Name = ligand_9250446
REMARK  5 active torsions:
REMARK  status: ('A' for Active; 'I' for Inactive)
REMARK    1  A    between atoms: O_1  and  C_2
REMARK    2  A    between atoms: C_2  and  C_3
REMARK    3  A    between atoms: C_3  and  C_5
REMARK    4  A    between atoms: C_5  and  C_6
REMARK    5  A    between atoms: C_7  and  C_8
REMARK                            x       y       z     vdW  Elec       q    Type
REMARK                         _______ _______ _______ _____ _____    ______ ____
ROOT
ATOM      1  C   UNL     1       2.864   1.477  -0.033  0.00  0.00    +0.000 C 
ATOM      2  O   UNL     1       2.022   2.374   0.047  0.00  0.00    +0.000 OA
ENDROOT
BRANCH   1   3
ATOM      3  C   UNL     1       2.429   0.018  -0.074  0.00  0.00    +0.000 C 
BRANCH   3   4
ATOM      4  O   UNL     1       3.354  -0.811  -0.753  0.00  0.00    +0.000 OA
ATOM      5  H   UNL     1       2.972  -1.707  -0.775  0.00  0.00    +0.000 HD
ENDBRANCH   3   4
ENDBRANCH   1   3
BRANCH   1   6
ATOM      6  C   UNL     1       4.361   1.736   0.000  0.00  0.00    +0.000 C 
BRANCH   6   7
ATOM      7  C   UNL     1       4.680   3.169   0.076  0.00  0.00    +0.000 C 
ATOM      8  C   UNL     1       4.896   4.350   0.131  0.00  0.00    +0.000 C 
BRANCH   8   9
ATOM      9  C   UNL     1       5.134   5.864   0.195  0.00  0.00    +0.000 C 
ATOM     10  N   UNL     1       5.319   7.009   0.245  0.00  0.00    +0.000 NA
ENDBRANCH   8   9
ENDBRANCH   6   7
ENDBRANCH   1   6
TORSDOF 5
