REMARK  Name = ligand_9250571
REMARK  3 active torsions:
REMARK  status: ('A' for Active; 'I' for Inactive)
REMARK    1  A    between atoms: C_2  and  C_3
REMARK    2  A    between atoms: N_5  and  C_6
REMARK    3  A    between atoms: C_7  and  C_8
REMARK                            x       y       z     vdW  Elec       q    Type
REMARK                         _______ _______ _______ _____ _____    ______ ____
ROOT
ATOM      1  C   UNL     1       3.177   0.457   1.438  0.00  0.00    +0.000 C 
ATOM      2  O   UNL     1       2.501   0.821   2.396  0.00  0.00    +0.000 OA
ATOM      3  N   UNL     1       4.569   0.452   1.387  0.00  0.00    +0.000 N 
ATOM      4  H   UNL     1       5.034   0.136   0.540  0.00  0.00    +0.000 HD
ENDROOT
BRANCH   1   6
ATOM      5  O   UNL     1       1.708  -0.951   0.154  0.00  0.00    +0.000 OA
ATOM      6  C   UNL     1       2.465   0.004   0.167  0.00  0.00    +0.000 C 
ENDBRANCH   1   6
BRANCH   3   7
ATOM      7  C   UNL     1       5.339   0.838   2.469  0.00  0.00    +0.000 C 
ATOM      8  C   UNL     1       6.680   0.841   2.487  0.00  0.00    +0.000 C 
BRANCH   8   9
ATOM      9  C   UNL     1       7.440   1.282   3.728  0.00  0.00    +0.000 C 
ATOM     10  C   UNL     1       8.092   1.660   4.791  0.00  0.00    +0.000 C 
ENDBRANCH   8   9
ENDBRANCH   3   7
TORSDOF 3
