REMARK  Name = ligand_9250134
REMARK  5 active torsions:
REMARK  status: ('A' for Active; 'I' for Inactive)
REMARK    1  A    between atoms: O_1  and  C_2
REMARK    2  A    between atoms: C_2  and  C_3
REMARK    3  A    between atoms: C_3  and  N_4
REMARK    4  A    between atoms: C_3  and  C_7
REMARK    5  A    between atoms: N_4  and  N_5
REMARK                            x       y       z     vdW  Elec       q    Type
REMARK                         _______ _______ _______ _____ _____    ______ ____
ROOT
ATOM      1  C   UNL     1       2.916  -0.170   1.320  0.00  0.00    +0.000 C 
ENDROOT
BRANCH   1   2
ATOM      2  C   UNL     1       4.427  -0.235   1.358  0.00  0.00    +0.000 C 
ATOM      3  C   UNL     1       5.202  -0.267   2.655  0.00  0.00    +0.000 C 
ATOM      4  O   UNL     1       5.062   0.937   1.892  0.00  0.00    +0.000 OA
ENDBRANCH   1   2
BRANCH   1   5
ATOM      5  N   UNL     1       2.391  -1.455   1.858  0.00  0.00    +0.000 N 
ATOM      6  H   UNL     1       3.050  -1.778   2.567  0.00  0.00    +0.000 HD
BRANCH   5   7
ATOM      7  N   UNL     1       1.166  -1.357   2.445  0.00  0.00    +0.000 NA
ATOM      8  C   UNL     1       0.519  -2.478   2.471  0.00  0.00    +0.000 C 
ENDBRANCH   5   7
ENDBRANCH   1   5
BRANCH   1   9
ATOM      9  C   UNL     1       2.459   0.068  -0.139  0.00  0.00    +0.000 C 
BRANCH   9  10
ATOM     10  O   UNL     1       1.055   0.255  -0.298  0.00  0.00    +0.000 OA
ATOM     11  H   UNL     1       0.712  -0.550  -0.715  0.00  0.00    +0.000 HD
ENDBRANCH   9  10
ENDBRANCH   1   9
TORSDOF 5
