REMARK  Name = ligand_9250225
REMARK  5 active torsions:
REMARK  status: ('A' for Active; 'I' for Inactive)
REMARK    1  A    between atoms: O_1  and  C_2
REMARK    2  A    between atoms: C_2  and  C_3
REMARK    3  A    between atoms: N_5  and  N_6
REMARK    4  A    between atoms: N_6  and  C_7
REMARK    5  A    between atoms: C_7  and  C_8
REMARK                            x       y       z     vdW  Elec       q    Type
REMARK                         _______ _______ _______ _____ _____    ______ ____
ROOT
ATOM      1  C   UNL     1       3.049  -1.364  -0.712  0.00  0.00    +0.000 C 
ATOM      2  N   UNL     1       2.523  -0.501   0.114  0.00  0.00    +0.000 NA
ATOM      3  N   UNL     1       4.419  -1.455  -0.830  0.00  0.00    +0.000 N 
ATOM      4  H   UNL     1       1.496  -0.616   0.028  0.00  0.00    +0.000 HD
ATOM      5  H   UNL     1       4.875  -0.933  -0.079  0.00  0.00    +0.000 HD
ENDROOT
BRANCH   3   6
ATOM      6  N   UNL     1       4.931  -2.726  -1.207  0.00  0.00    +0.000 NA
ATOM      7  H   UNL     1       5.012  -2.777  -2.225  0.00  0.00    +0.000 HD
BRANCH   6   8
ATOM      8  C   UNL     1       6.259  -2.934  -0.638  0.00  0.00    +0.000 C 
BRANCH   8   9
ATOM      9  C   UNL     1       6.779  -4.307  -1.031  0.00  0.00    +0.000 C 
ATOM     10  C   UNL     1       7.225  -5.485  -1.368  0.00  0.00    +0.000 C 
ENDBRANCH   8   9
ENDBRANCH   6   8
ENDBRANCH   3   6
BRANCH   1  11
ATOM     11  C   UNL     1       2.133  -2.261  -1.553  0.00  0.00    +0.000 C 
BRANCH  11  12
ATOM     12  O   UNL     1       0.762  -2.012  -1.282  0.00  0.00    +0.000 OA
ATOM     13  H   UNL     1       0.265  -2.686  -1.778  0.00  0.00    +0.000 HD
ENDBRANCH  11  12
ENDBRANCH   1  11
TORSDOF 5
