REMARK  Name = ligand_9250423
REMARK  4 active torsions:
REMARK  status: ('A' for Active; 'I' for Inactive)
REMARK    1  A    between atoms: C_2  and  C_3
REMARK    2  A    between atoms: C_3  and  C_5
REMARK    3  A    between atoms: C_5  and  C_6
REMARK    4  A    between atoms: C_7  and  C_8
REMARK                            x       y       z     vdW  Elec       q    Type
REMARK                         _______ _______ _______ _____ _____    ______ ____
ROOT
ATOM      1  C   UNL     1       4.621  -0.416  -1.313  0.00  0.00    +0.000 C 
ENDROOT
BRANCH   1   2
ATOM      2  C   UNL     1       3.101  -0.427  -1.344  0.00  0.00    +0.000 C 
ATOM      3  O   UNL     1       2.407  -0.759  -2.301  0.00  0.00    +0.000 OA
BRANCH   2   5
ATOM      4  O   UNL     1       3.000   0.353   0.901  0.00  0.00    +0.000 OA
ATOM      5  C   UNL     1       2.385   0.008  -0.093  0.00  0.00    +0.000 C 
ENDBRANCH   2   5
ENDBRANCH   1   2
BRANCH   1   6
ATOM      6  C   UNL     1       5.127  -0.886  -2.667  0.00  0.00    +0.000 C 
ATOM      7  C   UNL     1       5.562  -1.289  -3.829  0.00  0.00    +0.000 C 
BRANCH   7   8
ATOM      8  C   UNL     1       6.077  -1.764  -5.197  0.00  0.00    +0.000 C 
ATOM      9  N   UNL     1       6.479  -2.122  -6.228  0.00  0.00    +0.000 NA
ENDBRANCH   7   8
ENDBRANCH   1   6
TORSDOF 4
