REMARK  Name = ligand_9250270
REMARK  5 active torsions:
REMARK  status: ('A' for Active; 'I' for Inactive)
REMARK    1  A    between atoms: O_1  and  C_2
REMARK    2  A    between atoms: C_2  and  C_3
REMARK    3  A    between atoms: C_3  and  O_4
REMARK    4  A    between atoms: O_4  and  C_5
REMARK    5  A    between atoms: C_5  and  C_8
REMARK                            x       y       z     vdW  Elec       q    Type
REMARK                         _______ _______ _______ _____ _____    ______ ____
ROOT
ATOM      1  O   UNL     1       4.603  -1.597  -0.244  0.00  0.00    +0.000 OA
ENDROOT
BRANCH   1   2
ATOM      2  C   UNL     1       5.307  -2.848  -0.373  0.00  0.00    +0.000 C 
ATOM      3  C   UNL     1       6.565  -2.914   0.448  0.00  0.00    +0.000 C 
ATOM      4  C   UNL     1       6.649  -2.783  -1.043  0.00  0.00    +0.000 C 
BRANCH   2   5
ATOM      5  C   UNL     1       3.766  -1.401  -2.496  0.00  0.00    +0.000 C 
ATOM      6  N   UNL     1       4.049  -1.363  -3.624  0.00  0.00    +0.000 NA
ENDBRANCH   2   5
ENDBRANCH   1   2
BRANCH   1   7
ATOM      7  C   UNL     1       3.424  -1.478  -1.062  0.00  0.00    +0.000 C 
BRANCH   7   8
ATOM      8  C   UNL     1       2.723  -0.191  -0.612  0.00  0.00    +0.000 C 
BRANCH   8   9
ATOM      9  O   UNL     1       1.431  -0.046  -1.197  0.00  0.00    +0.000 OA
ATOM     10  H   UNL     1       1.086   0.819  -0.912  0.00  0.00    +0.000 HD
ENDBRANCH   8   9
ENDBRANCH   7   8
ENDBRANCH   1   7
TORSDOF 5
