REMARK  Name = ligand_9251752
REMARK  2 active torsions:
REMARK  status: ('A' for Active; 'I' for Inactive)
REMARK    1  A    between atoms: O_1  and  C_2
REMARK    2  A    between atoms: C_2  and  CA_4
REMARK                            x       y       z     vdW  Elec       q    Type
REMARK                         _______ _______ _______ _____ _____    ______ ____
ROOT
ATOM      1  CA  UNL     1       3.151   0.484  -1.197  0.00  0.00    +0.000 C 
ATOM      2  C   UNL     1       4.543  -0.092  -1.164  0.00  0.00    +0.000 C 
ATOM      3  C   UNL     1       5.591   0.679  -0.865  0.00  0.00    +0.000 C 
ATOM      4  N   UNL     1       5.398   2.007  -0.628  0.00  0.00    +0.000 N 
ATOM      5  C   UNL     1       4.168   2.577  -0.773  0.00  0.00    +0.000 C 
ATOM      6  N   UNL     1       3.058   1.980  -1.047  0.00  0.00    +0.000 NA
ATOM      7  H   UNL     1       6.208   2.573  -0.402  0.00  0.00    +0.000 HD
ENDROOT
BRANCH   1   8
ATOM      8  C   UNL     1       2.299  -0.120  -0.059  0.00  0.00    +0.000 C 
ATOM      9  OXT UNL     1       2.331  -1.280   0.327  0.00  0.00    +0.000 OA
BRANCH   8  10
ATOM     10  O   UNL     1       1.436   0.802   0.456  0.00  0.00    +0.000 OA
ATOM     11  H   UNL     1       1.645   1.653  -0.001  0.00  0.00    +0.000 HD
ENDBRANCH   8  10
ENDBRANCH   1   8
TORSDOF 2
