REMARK  Name = ligand_9251093
REMARK  1 active torsions:
REMARK  status: ('A' for Active; 'I' for Inactive)
REMARK    1  A    between atoms: N_3  and  C_4
REMARK                            x       y       z     vdW  Elec       q    Type
REMARK                         _______ _______ _______ _____ _____    ______ ____
ROOT
ATOM      1  C   UNL     1       4.475  -0.879   0.999  0.00  0.00    +0.000 C 
ATOM      2  C   UNL     1       5.045  -2.006   1.462  0.00  0.00    +0.000 C 
ATOM      3  C   UNL     1       6.548  -1.885   1.382  0.00  0.00    +0.000 C 
ATOM      4  C   UNL     1       6.803  -0.518   0.781  0.00  0.00    +0.000 C 
ATOM      5  N   UNL     1       6.409   0.697   1.484  0.00  0.00    +0.000 NA
ATOM      6  C   UNL     1       5.451   0.131   0.540  0.00  0.00    +0.000 C 
ATOM      7  H   UNL     1       6.877   1.512   1.085  0.00  0.00    +0.000 HD
ENDROOT
BRANCH   1  10
ATOM      8  O   UNL     1       1.196   0.392   0.477  0.00  0.00    +0.000 OA
ATOM      9  C   UNL     1       2.419   0.357   0.510  0.00  0.00    +0.000 C 
ATOM     10  N   UNL     1       3.117  -0.728   0.957  0.00  0.00    +0.000 N 
ATOM     11  H   UNL     1       2.535  -1.486   1.290  0.00  0.00    +0.000 HD
ENDBRANCH   1  10
TORSDOF 1
