REMARK  Name = ligand_9251503
REMARK  2 active torsions:
REMARK  status: ('A' for Active; 'I' for Inactive)
REMARK    1  A    between atoms: N_3  and  N_4
REMARK    2  A    between atoms: C_7  and  C_8
REMARK                            x       y       z     vdW  Elec       q    Type
REMARK                         _______ _______ _______ _____ _____    ______ ____
ROOT
ATOM      1  N   UNL     1       4.589   0.714   0.902  0.00  0.00    +0.000 NA
ATOM      2  C   UNL     1       4.934   0.463   2.324  0.00  0.00    +0.000 C 
ATOM      3  C   UNL     1       5.438   1.915   2.467  0.00  0.00    +0.000 C 
ATOM      4  C   UNL     1       5.450   1.924   0.923  0.00  0.00    +0.000 C 
ENDROOT
BRANCH   1   7
ATOM      5  O   UNL     1       1.106   0.295   0.398  0.00  0.00    +0.000 OA
ATOM      6  C   UNL     1       2.313   0.091   0.430  0.00  0.00    +0.000 C 
ATOM      7  N   UNL     1       3.231   1.048   0.776  0.00  0.00    +0.000 N 
ATOM      8  H   UNL     1       2.874   1.960   1.046  0.00  0.00    +0.000 HD
ENDBRANCH   1   7
BRANCH   4   9
ATOM      9  C   UNL     1       4.528   2.867   3.082  0.00  0.00    +0.000 C 
ATOM     10  C   UNL     1       3.766   3.674   3.541  0.00  0.00    +0.000 C 
ENDBRANCH   4   9
TORSDOF 2
