REMARK  Name = ligand_925267
REMARK  2 active torsions:
REMARK  status: ('A' for Active; 'I' for Inactive)
REMARK    1  A    between atoms: C_1  and  C_2
REMARK    2  A    between atoms: C_7  and  C_8
REMARK                            x       y       z     vdW  Elec       q    Type
REMARK                         _______ _______ _______ _____ _____    ______ ____
ROOT
ATOM      1  C   UNL     1       1.034  -0.090   0.027  0.00  0.00    +0.000 C 
ATOM      2  C   UNL     1       2.547   0.012   0.089  0.00  0.00    +0.000 C 
ATOM      3  N   UNL     1       3.169  -1.136   0.759  0.00  0.00    +0.000 N 
ATOM      4  C   UNL     1       4.311  -0.768   1.391  0.00  0.00    +0.000 C 
ATOM      5  N   UNL     1       5.153  -1.523   1.990  0.00  0.00    +0.000 NA
ATOM      6  N   UNL     1       4.405   0.592   1.322  0.00  0.00    +0.000 N 
ATOM      7  C   UNL     1       3.135   1.188   0.942  0.00  0.00    +0.000 C 
ATOM      8  H   UNL     1       2.977  -2.089   0.486  0.00  0.00    +0.000 HD
ATOM      9  H   UNL     1       4.828  -2.487   1.924  0.00  0.00    +0.000 HD
ATOM     10  H   UNL     1       5.007   1.041   1.997  0.00  0.00    +0.000 HD
ENDROOT
BRANCH   7  11
ATOM     11  C   UNL     1       2.287   1.380   2.190  0.00  0.00    +0.000 C 
ATOM     12  C   UNL     1       1.561   1.544   3.260  0.00  0.00    +0.000 C 
ENDBRANCH   7  11
TORSDOF 1
