REMARK  Name = ligand_9252713
REMARK  3 active torsions:
REMARK  status: ('A' for Active; 'I' for Inactive)
REMARK    1  A    between atoms: O_1  and  N_2
REMARK    2  A    between atoms: C_6  and  C_7
REMARK    3  A    between atoms: C_7  and  C_8
REMARK                            x       y       z     vdW  Elec       q    Type
REMARK                         _______ _______ _______ _____ _____    ______ ____
ROOT
ATOM      1  N   UNL     1       2.443   0.009  -0.276  0.00  0.00    +0.000 N 
ATOM      2  C   UNL     1       3.172  -1.045   0.210  0.00  0.00    +0.000 C 
ATOM      3  N   UNL     1       4.378  -0.851   0.640  0.00  0.00    +0.000 NA
ATOM      4  C   UNL     1       4.526   0.635   0.585  0.00  0.00    +0.000 C 
ATOM      5  C   UNL     1       3.270   1.208  -0.119  0.00  0.00    +0.000 C 
ENDROOT
BRANCH   1   6
ATOM      6  O   UNL     1       1.190   0.123   0.342  0.00  0.00    +0.000 OA
ATOM      7  H   UNL     1       0.659  -0.571  -0.092  0.00  0.00    +0.000 HD
ENDBRANCH   1   6
BRANCH   5   8
ATOM      8  C   UNL     1       3.563   1.775  -1.503  0.00  0.00    +0.000 C 
BRANCH   8   9
ATOM      9  C   UNL     1       4.438   2.996  -1.450  0.00  0.00    +0.000 C 
ATOM     10  O   UNL     1       4.832   3.519  -0.412  0.00  0.00    +0.000 OA
ENDBRANCH   8   9
ENDBRANCH   5   8
TORSDOF 3
