REMARK  Name = ligand_9252388
REMARK  3 active torsions:
REMARK  status: ('A' for Active; 'I' for Inactive)
REMARK    1  A    between atoms: O_1  and  N_2
REMARK    2  A    between atoms: C_4  and  C_5
REMARK    3  A    between atoms: C_5  and  C_6
REMARK                            x       y       z     vdW  Elec       q    Type
REMARK                         _______ _______ _______ _____ _____    ______ ____
ROOT
ATOM      1  N   UNL     1       2.658  -0.045   0.532  0.00  0.00    +0.000 N 
ATOM      2  C   UNL     1       3.406  -1.124  -0.131  0.00  0.00    +0.000 C 
ATOM      3  C   UNL     1       4.331  -0.037  -0.723  0.00  0.00    +0.000 C 
ATOM      4  C   UNL     1       3.279   0.949  -0.183  0.00  0.00    +0.000 C 
ATOM      5  O   UNL     1       2.981   2.100  -0.420  0.00  0.00    +0.000 OA
ENDROOT
BRANCH   1   6
ATOM      6  O   UNL     1       1.254  -0.043   0.346  0.00  0.00    +0.000 OA
ATOM      7  H   UNL     1       1.044  -0.939   0.034  0.00  0.00    +0.000 HD
ENDBRANCH   1   6
BRANCH   3   8
ATOM      8  C   UNL     1       4.444  -0.084  -2.239  0.00  0.00    +0.000 C 
BRANCH   8   9
ATOM      9  C   UNL     1       5.368   1.000  -2.708  0.00  0.00    +0.000 C 
ATOM     10  C   UNL     1       6.470   0.778  -3.434  0.00  0.00    +0.000 C 
ENDBRANCH   8   9
ENDBRANCH   3   8
TORSDOF 3
