REMARK  Name = ligand_9253571
REMARK  1 active torsions:
REMARK  status: ('A' for Active; 'I' for Inactive)
REMARK    1  A    between atoms: O_1  and  N_2
REMARK                            x       y       z     vdW  Elec       q    Type
REMARK                         _______ _______ _______ _____ _____    ______ ____
ROOT
ATOM      1  N   UNL     1       2.444  -0.102   0.115  0.00  0.00    +0.000 NA
ATOM      2  C   UNL     1       2.890   0.208  -1.071  0.00  0.00    +0.000 C 
ATOM      3  C   UNL     1       4.401   0.196  -1.251  0.00  0.00    +0.000 C 
ATOM      4  O   UNL     1       4.722  -0.234  -2.565  0.00  0.00    +0.000 OA
ATOM      5  N   UNL     1       4.934   0.873  -3.401  0.00  0.00    +0.000 NA
ATOM      6  C   UNL     1       3.825   1.418  -3.778  0.00  0.00    +0.000 C 
ATOM      7  C   UNL     1       2.430   1.070  -3.415  0.00  0.00    +0.000 C 
ATOM      8  C   UNL     1       2.024   0.572  -2.241  0.00  0.00    +0.000 C 
ENDROOT
BRANCH   1   9
ATOM      9  O   UNL     1       1.046  -0.066   0.189  0.00  0.00    +0.000 OA
ATOM     10  H   UNL     1       0.879  -0.364   1.104  0.00  0.00    +0.000 HD
ENDBRANCH   1   9
TORSDOF 1
