REMARK  Name = ligand_9254442
REMARK  4 active torsions:
REMARK  status: ('A' for Active; 'I' for Inactive)
REMARK    1  A    between atoms: O_1  and  N_2
REMARK    2  A    between atoms: C_3  and  C_4
REMARK    3  A    between atoms: C_4  and  C_6
REMARK    4  A    between atoms: C_7  and  C_8
REMARK                            x       y       z     vdW  Elec       q    Type
REMARK                         _______ _______ _______ _____ _____    ______ ____
ROOT
ATOM      1  C   UNL     1       4.494   1.017  -0.559  0.00  0.00    +0.000 C 
ATOM      2  C   UNL     1       5.179   0.050   0.065  0.00  0.00    +0.000 C 
ENDROOT
BRANCH   1   4
ATOM      3  N   UNL     1       2.265   1.880  -1.113  0.00  0.00    +0.000 NA
ATOM      4  C   UNL     1       3.011   0.990  -0.541  0.00  0.00    +0.000 C 
BRANCH   3   5
ATOM      5  O   UNL     1       0.921   1.550  -0.901  0.00  0.00    +0.000 OA
ATOM      6  H   UNL     1       0.456   2.272  -1.365  0.00  0.00    +0.000 HD
ENDBRANCH   3   5
ENDBRANCH   1   4
BRANCH   1   7
ATOM      7  C   UNL     1       5.254   2.124  -1.272  0.00  0.00    +0.000 C 
ATOM      8  C   UNL     1       5.906   3.073  -1.884  0.00  0.00    +0.000 C 
BRANCH   8   9
ATOM      9  C   UNL     1       6.676   4.186  -2.602  0.00  0.00    +0.000 C 
ATOM     10  C   UNL     1       7.280   5.057  -3.163  0.00  0.00    +0.000 C 
ENDBRANCH   8   9
ENDBRANCH   1   7
TORSDOF 4
