REMARK  Name = ligand_9254802
REMARK  4 active torsions:
REMARK  status: ('A' for Active; 'I' for Inactive)
REMARK    1  A    between atoms: O_1  and  N_2
REMARK    2  A    between atoms: C_3  and  C_4
REMARK    3  A    between atoms: C_3  and  C_6
REMARK    4  A    between atoms: C_6  and  C_8
REMARK                            x       y       z     vdW  Elec       q    Type
REMARK                         _______ _______ _______ _____ _____    ______ ____
ROOT
ATOM      1  N   UNL     1       2.299  -0.034   0.009  0.00  0.00    +0.000 NA
ATOM      2  C   UNL     1       2.962   1.079  -0.166  0.00  0.00    +0.000 C 
ENDROOT
BRANCH   1   3
ATOM      3  O   UNL     1       0.907   0.125  -0.016  0.00  0.00    +0.000 OA
ATOM      4  H   UNL     1       0.581  -0.785   0.127  0.00  0.00    +0.000 HD
ENDBRANCH   1   3
BRANCH   2   5
ATOM      5  C   UNL     1       2.185   2.298  -0.358  0.00  0.00    +0.000 C 
ATOM      6  N   UNL     1       1.600   3.293  -0.513  0.00  0.00    +0.000 NA
ENDBRANCH   2   5
BRANCH   2   7
ATOM      7  C   UNL     1       4.463   1.124  -0.173  0.00  0.00    +0.000 C 
ATOM      8  C   UNL     1       5.153  -0.015   0.007  0.00  0.00    +0.000 C 
BRANCH   7   9
ATOM      9  C   UNL     1       5.166   2.349  -0.367  0.00  0.00    +0.000 C 
ATOM     10  C   UNL     1       5.774   3.371  -0.529  0.00  0.00    +0.000 C 
ENDBRANCH   7   9
ENDBRANCH   2   7
TORSDOF 4
