REMARK  Name = ligand_9254303
REMARK  4 active torsions:
REMARK  status: ('A' for Active; 'I' for Inactive)
REMARK    1  A    between atoms: O_1  and  N_2
REMARK    2  A    between atoms: N_2  and  C_3
REMARK    3  A    between atoms: C_3  and  C_4
REMARK    4  A    between atoms: C_4  and  C_5
REMARK                            x       y       z     vdW  Elec       q    Type
REMARK                         _______ _______ _______ _____ _____    ______ ____
ROOT
ATOM      1  N   UNL     1       2.552  -0.239  -0.005  0.00  0.00    +0.000 N 
ATOM      2  C   UNL     1       2.451  -1.256   0.908  0.00  0.00    +0.000 C 
ATOM      3  N   UNL     1       2.107  -1.144   2.146  0.00  0.00    +0.000 NA
ATOM      4  H   UNL     1       1.959  -0.141   2.311  0.00  0.00    +0.000 HD
ENDROOT
BRANCH   1   5
ATOM      5  O   UNL     1       2.664   1.029   0.575  0.00  0.00    +0.000 OA
ATOM      6  H   UNL     1       1.851   1.480   0.279  0.00  0.00    +0.000 HD
ENDBRANCH   1   5
BRANCH   1   7
ATOM      7  C   UNL     1       3.281  -0.380  -1.258  0.00  0.00    +0.000 C 
BRANCH   7   8
ATOM      8  C   UNL     1       2.303  -0.635  -2.407  0.00  0.00    +0.000 C 
BRANCH   8   9
ATOM      9  C   UNL     1       3.021  -0.786  -3.711  0.00  0.00    +0.000 C 
ATOM     10  C   UNL     1       2.274  -1.146  -4.969  0.00  0.00    +0.000 C 
ATOM     11  O   UNL     1       3.026  -2.121  -4.232  0.00  0.00    +0.000 OA
ENDBRANCH   8   9
ENDBRANCH   7   8
ENDBRANCH   1   7
TORSDOF 4
