REMARK  Name = ligand_9254954
REMARK  1 active torsions:
REMARK  status: ('A' for Active; 'I' for Inactive)
REMARK    1  A    between atoms: O_1  and  N_2
REMARK                            x       y       z     vdW  Elec       q    Type
REMARK                         _______ _______ _______ _____ _____    ______ ____
ROOT
ATOM      1  N   UNL     1       2.279   1.652  -0.596  0.00  0.00    +0.000 NA
ATOM      2  C   UNL     1       3.087   0.638  -0.546  0.00  0.00    +0.000 C 
ATOM      3  N   UNL     1       4.446   0.623  -0.798  0.00  0.00    +0.000 N 
ATOM      4  C   UNL     1       5.182   1.743  -1.166  0.00  0.00    +0.000 C 
ATOM      5  C   UNL     1       6.464   1.466  -1.437  0.00  0.00    +0.000 C 
ATOM      6  C   UNL     1       6.673  -0.011  -1.258  0.00  0.00    +0.000 C 
ATOM      7  C   UNL     1       5.303  -0.485  -0.776  0.00  0.00    +0.000 C 
ATOM      8  C   UNL     1       5.074  -1.748  -0.391  0.00  0.00    +0.000 C 
ENDROOT
BRANCH   1   9
ATOM      9  O   UNL     1       0.981   1.222  -0.292  0.00  0.00    +0.000 OA
ATOM     10  H   UNL     1       0.461   2.041  -0.394  0.00  0.00    +0.000 HD
ENDBRANCH   1   9
TORSDOF 1
