REMARK  Name = ligand_9254106
REMARK  3 active torsions:
REMARK  status: ('A' for Active; 'I' for Inactive)
REMARK    1  A    between atoms: O_1  and  N_2
REMARK    2  A    between atoms: C_3  and  C_4
REMARK    3  A    between atoms: CA_7  and  C_8
REMARK                            x       y       z     vdW  Elec       q    Type
REMARK                         _______ _______ _______ _____ _____    ______ ____
ROOT
ATOM      1  C   UNL     1       4.408   0.268   1.019  0.00  0.00    +0.000 C 
ATOM      2  C   UNL     1       5.109  -0.055   2.351  0.00  0.00    +0.000 C 
ATOM      3  N   UNL     1       6.081   1.028   2.076  0.00  0.00    +0.000 NA
ATOM      4  CA  UNL     1       5.078   1.655   1.160  0.00  0.00    +0.000 C 
ATOM      5  H   UNL     1       6.918   0.699   1.595  0.00  0.00    +0.000 HD
ENDROOT
BRANCH   1   7
ATOM      6  N   UNL     1       2.226   0.962   0.128  0.00  0.00    +0.000 NA
ATOM      7  C   UNL     1       2.874   0.213   0.961  0.00  0.00    +0.000 C 
BRANCH   6   8
ATOM      8  O   UNL     1       0.856   0.735   0.297  0.00  0.00    +0.000 OA
ATOM      9  H   UNL     1       0.455   1.419  -0.272  0.00  0.00    +0.000 HD
ENDBRANCH   6   8
ENDBRANCH   1   7
BRANCH   4  10
ATOM     10  C   UNL     1       4.263   2.807   1.846  0.00  0.00    +0.000 C 
ATOM     11  O   UNL     1       3.542   2.730   2.844  0.00  0.00    +0.000 OA
ENDBRANCH   4  10
TORSDOF 3
