REMARK  Name = ligand_9255899
REMARK  0 active torsions:
REMARK  status: ('A' for Active; 'I' for Inactive)
REMARK                            x       y       z     vdW  Elec       q    Type
REMARK                         _______ _______ _______ _____ _____    ______ ____
ROOT
ATOM      1  S   UNL     1      -2.662   0.025   0.242  0.00  0.00    +0.000 S 
ATOM      2  C   UNL     1      -1.470  -1.218   0.162  0.00  0.00    +0.000 A 
ATOM      3  C   UNL     1      -0.204  -0.692   0.072  0.00  0.00    +0.000 A 
ATOM      4  C   UNL     1       0.933  -1.493  -0.008  0.00  0.00    +0.000 A 
ATOM      5  C   UNL     1       2.091  -0.707  -0.094  0.00  0.00    +0.000 A 
ATOM      6  C   UNL     1       2.030   0.707  -0.091  0.00  0.00    +0.000 A 
ATOM      7  N   UNL     1       0.913   1.494  -0.010  0.00  0.00    +0.000 NA
ATOM      8  C   UNL     1      -0.216   0.745   0.072  0.00  0.00    +0.000 A 
ATOM      9  C   UNL     1      -1.478   1.269   0.161  0.00  0.00    +0.000 A 
ENDROOT
TORSDOF 0
