REMARK  Name = ligand_9255681
REMARK  2 active torsions:
REMARK  status: ('A' for Active; 'I' for Inactive)
REMARK    1  A    between atoms: C_1  and  C_2
REMARK    2  A    between atoms: C_1  and  C_5
REMARK                            x       y       z     vdW  Elec       q    Type
REMARK                         _______ _______ _______ _____ _____    ______ ____
ROOT
ATOM      1  C   UNL     1       2.614  -0.096  -0.009  0.00  0.00    +0.000 A 
ATOM      2  N   UNL     1       3.277   0.097  -1.132  0.00  0.00    +0.000 NA
ATOM      3  N   UNL     1       4.645   0.059  -0.947  0.00  0.00    +0.000 NA
ATOM      4  C   UNL     1       4.962  -0.169   0.309  0.00  0.00    +0.000 A 
ATOM      5  S   UNL     1       3.621  -0.375   1.358  0.00  0.00    +0.000 S 
ENDROOT
BRANCH   1   6
ATOM      6  C   UNL     1       1.124  -0.041   0.118  0.00  0.00    +0.000 C 
BRANCH   6   7
ATOM      7  C   UNL     1       0.401  -1.330  -0.170  0.00  0.00    +0.000 C 
ATOM      8  C   UNL     1      -1.106  -1.354  -0.072  0.00  0.00    +0.000 C 
ATOM      9  C   UNL     1      -0.281  -2.115   0.926  0.00  0.00    +0.000 C 
ENDBRANCH   6   7
ENDBRANCH   1   6
TORSDOF 2
