REMARK  Name = ligand_925521
REMARK  1 active torsions:
REMARK  status: ('A' for Active; 'I' for Inactive)
REMARK    1  A    between atoms: C_1  and  C_2
REMARK                            x       y       z     vdW  Elec       q    Type
REMARK                         _______ _______ _______ _____ _____    ______ ____
ROOT
ATOM      1  C   UNL     1       0.881  -0.027  -0.105  0.00  0.00    +0.000 C 
ATOM      2  C   UNL     1       2.395   0.013  -0.150  0.00  0.00    +0.000 C 
ATOM      3  N   UNL     1       2.958  -1.153   0.652  0.00  0.00    +0.000 NA
ATOM      4  N   UNL     1       3.687  -0.768   1.640  0.00  0.00    +0.000 NA
ATOM      5  C   UNL     1       3.701   0.622   1.635  0.00  0.00    +0.000 A 
ATOM      6  C   UNL     1       2.970   1.105   0.615  0.00  0.00    +0.000 A 
ATOM      7  N   UNL     1       2.986   2.454   0.637  0.00  0.00    +0.000 N 
ATOM      8  C   UNL     1       3.760   2.822   1.732  0.00  0.00    +0.000 A 
ATOM      9  C   UNL     1       4.222   1.674   2.373  0.00  0.00    +0.000 A 
ATOM     10  H   UNL     1       2.519   3.089   0.000  0.00  0.00    +0.000 HD
ENDROOT
TORSDOF 0
