REMARK  Name = ligand_9255961
REMARK  2 active torsions:
REMARK  status: ('A' for Active; 'I' for Inactive)
REMARK    1  A    between atoms: C_1  and  C_2
REMARK    2  A    between atoms: C_1  and  C_5
REMARK                            x       y       z     vdW  Elec       q    Type
REMARK                         _______ _______ _______ _____ _____    ______ ____
ROOT
ATOM      1  C   UNL     1       1.020   0.042  -0.057  0.00  0.00    +0.000 C 
ENDROOT
BRANCH   1   2
ATOM      2  C   UNL     1       2.513  -0.083  -0.069  0.00  0.00    +0.000 A 
ATOM      3  C   UNL     1       3.362   0.207   0.986  0.00  0.00    +0.000 A 
ATOM      4  S   UNL     1       4.985  -0.027   0.493  0.00  0.00    +0.000 S 
ATOM      5  N   UNL     1       4.624  -0.497  -1.055  0.00  0.00    +0.000 NA
ATOM      6  C   UNL     1       3.304  -0.464  -1.203  0.00  0.00    +0.000 A 
ENDBRANCH   1   2
BRANCH   1   7
ATOM      7  C   UNL     1       0.259  -1.251  -0.182  0.00  0.00    +0.000 C 
ATOM      8  C   UNL     1       0.206  -2.036  -1.472  0.00  0.00    +0.000 C 
ATOM      9  N   UNL     1      -0.943  -1.263  -1.018  0.00  0.00    +0.000 NA
ATOM     10  H   UNL     1      -1.663  -1.873  -0.628  0.00  0.00    +0.000 HD
ENDBRANCH   1   7
TORSDOF 2
