REMARK  Name = ligand_9255194
REMARK  4 active torsions:
REMARK  status: ('A' for Active; 'I' for Inactive)
REMARK    1  A    between atoms: O_1  and  N_2
REMARK    2  A    between atoms: C_3  and  C_8
REMARK    3  A    between atoms: N_4  and  C_5
REMARK    4  A    between atoms: C_5  and  C_6
REMARK                            x       y       z     vdW  Elec       q    Type
REMARK                         _______ _______ _______ _____ _____    ______ ____
ROOT
ATOM      1  N   UNL     1       4.054  -0.471  -0.844  0.00  0.00    +0.000 NA
ATOM      2  C   UNL     1       2.894  -0.037  -1.215  0.00  0.00    +0.000 C 
ATOM      3  N   UNL     1       2.222  -0.107  -2.414  0.00  0.00    +0.000 N 
ATOM      4  H   UNL     1       2.749  -0.199  -3.277  0.00  0.00    +0.000 HD
ENDROOT
BRANCH   1   5
ATOM      5  O   UNL     1       4.713  -1.185  -1.854  0.00  0.00    +0.000 OA
ATOM      6  H   UNL     1       5.538  -1.457  -1.412  0.00  0.00    +0.000 HD
ENDBRANCH   1   5
BRANCH   2   7
ATOM      7  C   UNL     1       2.263   0.680  -0.116  0.00  0.00    +0.000 C 
ATOM      8  N   UNL     1       1.703   1.275   0.721  0.00  0.00    +0.000 NA
ENDBRANCH   2   7
BRANCH   3   9
ATOM      9  C   UNL     1       0.787  -0.118  -2.490  0.00  0.00    +0.000 C 
BRANCH   9  10
ATOM     10  C   UNL     1       0.280  -0.214  -3.920  0.00  0.00    +0.000 C 
ATOM     11  C   UNL     1      -0.154  -0.296  -5.146  0.00  0.00    +0.000 C 
ENDBRANCH   9  10
ENDBRANCH   3   9
TORSDOF 4
