REMARK  Name = ligand_9256887
REMARK  1 active torsions:
REMARK  status: ('A' for Active; 'I' for Inactive)
REMARK    1  A    between atoms: C_1  and  C_2
REMARK                            x       y       z     vdW  Elec       q    Type
REMARK                         _______ _______ _______ _____ _____    ______ ____
ROOT
ATOM      1  C   UNL     1       0.924  -0.121  -0.076  0.00  0.00    +0.000 C 
ATOM      2  C   UNL     1       2.425  -0.120   0.051  0.00  0.00    +0.000 A 
ATOM      3  C   UNL     1       3.175   1.066   0.150  0.00  0.00    +0.000 A 
ATOM      4 CL   UNL     1       2.445   2.633   0.098  0.00  0.00    +0.000 Cl
ATOM      5  C   UNL     1       4.568   1.028   0.292  0.00  0.00    +0.000 A 
ATOM      6  C   UNL     1       5.242  -0.189   0.330  0.00  0.00    +0.000 A 
ATOM      7  C   UNL     1       4.521  -1.374   0.216  0.00  0.00    +0.000 A 
ATOM      8  C   UNL     1       3.129  -1.339   0.074  0.00  0.00    +0.000 A 
ATOM      9 CL   UNL     1       2.316  -2.860  -0.076  0.00  0.00    +0.000 Cl
ENDROOT
TORSDOF 0
