REMARK  Name = ligand_9256724
REMARK  2 active torsions:
REMARK  status: ('A' for Active; 'I' for Inactive)
REMARK    1  A    between atoms: C_1  and  C_2
REMARK    2  A    between atoms: C_6  and  N_7
REMARK                            x       y       z     vdW  Elec       q    Type
REMARK                         _______ _______ _______ _____ _____    ______ ____
ROOT
ATOM      1  C   UNL     1       1.053  -0.097   0.023  0.00  0.00    +0.000 C 
ATOM      2  C   UNL     1       2.546  -0.020  -0.087  0.00  0.00    +0.000 A 
ATOM      3  C   UNL     1       3.194   1.203  -0.178  0.00  0.00    +0.000 A 
ATOM      4  C   UNL     1       4.583   1.210  -0.307  0.00  0.00    +0.000 A 
ATOM      5 CL   UNL     1       5.388   2.739  -0.405  0.00  0.00    +0.000 Cl
ATOM      6  C   UNL     1       5.309   0.016  -0.386  0.00  0.00    +0.000 A 
ATOM      7  C   UNL     1       4.564  -1.147  -0.226  0.00  0.00    +0.000 A 
ATOM      8  N   UNL     1       3.215  -1.195  -0.105  0.00  0.00    +0.000 NA
ENDROOT
BRANCH   6   9
ATOM      9  N   UNL     1       6.714  -0.014  -0.390  0.00  0.00    +0.000 N 
ATOM     10  H   UNL     1       7.122   0.845  -0.756  0.00  0.00    +0.000 HD
ATOM     11  H   UNL     1       7.114  -0.847  -0.811  0.00  0.00    +0.000 HD
ENDBRANCH   6   9
TORSDOF 1
