REMARK  Name = ligand_9256152
REMARK  1 active torsions:
REMARK  status: ('A' for Active; 'I' for Inactive)
REMARK    1  A    between atoms: C_1  and  C_2
REMARK                            x       y       z     vdW  Elec       q    Type
REMARK                         _______ _______ _______ _____ _____    ______ ____
ROOT
ATOM      1  C   UNL     1       1.058  -0.097   0.047  0.00  0.00    +0.000 C 
ATOM      2  C   UNL     1       2.554   0.018   0.031  0.00  0.00    +0.000 C 
ATOM      3  C   UNL     1       3.450  -0.797   1.024  0.00  0.00    +0.000 C 
ATOM      4  C   UNL     1       4.607  -0.333   0.060  0.00  0.00    +0.000 C 
ATOM      5  N   UNL     1       4.605   1.149   0.285  0.00  0.00    +0.000 NA
ATOM      6  C   UNL     1       3.149   1.420   0.193  0.00  0.00    +0.000 C 
ATOM      7  S   UNL     1       3.474  -0.804  -1.296  0.00  0.00    +0.000 S 
ATOM      8  O   UNL     1       3.221  -2.227  -1.375  0.00  0.00    +0.000 OA
ATOM      9  O   UNL     1       3.626   0.051  -2.456  0.00  0.00    +0.000 OA
ATOM     10  H   UNL     1       5.070   1.654  -0.475  0.00  0.00    +0.000 HD
ENDROOT
TORSDOF 0
