REMARK  Name = ligand_9256308
REMARK  4 active torsions:
REMARK  status: ('A' for Active; 'I' for Inactive)
REMARK    1  A    between atoms: C_1  and  C_2
REMARK    2  A    between atoms: C_4  and  N_5
REMARK    3  A    between atoms: C_4  and  S_6
REMARK    4  A    between atoms: S_6  and  O_7
REMARK                            x       y       z     vdW  Elec       q    Type
REMARK                         _______ _______ _______ _____ _____    ______ ____
ROOT
ATOM      1  C   UNL     1       0.951  -0.085  -0.067  0.00  0.00    +0.000 C 
ATOM      2  C   UNL     1       2.282  -0.654  -0.557  0.00  0.00    +0.000 C 
ATOM      3  C   UNL     1       3.181   0.546  -0.180  0.00  0.00    +0.000 C 
ATOM      4  C   UNL     1       3.724  -0.220  -1.233  0.00  0.00    +0.000 C 
ENDROOT
BRANCH   4   5
ATOM      5  N   UNL     1       4.901  -1.068  -0.998  0.00  0.00    +0.000 NA
ATOM      6  H   UNL     1       4.823  -1.587  -0.126  0.00  0.00    +0.000 HD
ATOM      7  H   UNL     1       4.934  -1.788  -1.729  0.00  0.00    +0.000 HD
ENDBRANCH   4   5
BRANCH   4   8
ATOM      8  S   UNL     1       1.713  -1.400  -2.230  0.00  0.00    +0.000 S 
ATOM      9  O   UNL     1       1.017  -0.386  -2.989  0.00  0.00    +0.000 OA
ATOM     10  O   UNL     1       2.760  -2.224  -2.790  0.00  0.00    +0.000 OA
BRANCH   8  11
ATOM     11  O   UNL     1       0.588  -2.408  -1.660  0.00  0.00    +0.000 OA
ATOM     12  H   UNL     1      -0.223  -2.289  -2.195  0.00  0.00    +0.000 HD
ENDBRANCH   8  11
ENDBRANCH   4   8
TORSDOF 3
