REMARK  Name = ligand_9257901
REMARK  3 active torsions:
REMARK  status: ('A' for Active; 'I' for Inactive)
REMARK    1  A    between atoms: C_1  and  C_2
REMARK    2  A    between atoms: C_3  and  C_8
REMARK    3  A    between atoms: C_6  and  O_7
REMARK                            x       y       z     vdW  Elec       q    Type
REMARK                         _______ _______ _______ _____ _____    ______ ____
ROOT
ATOM      1  C   UNL     1       0.879  -0.050   0.066  0.00  0.00    +0.000 C 
ATOM      2  C   UNL     1       2.372   0.013   0.067  0.00  0.00    +0.000 A 
ATOM      3  C   UNL     1       3.145   1.164   0.064  0.00  0.00    +0.000 A 
ATOM      4  S   UNL     1       4.825   0.825   0.067  0.00  0.00    +0.000 S 
ATOM      5  C   UNL     1       4.549  -0.861   0.069  0.00  0.00    +0.000 A 
ATOM      6  C   UNL     1       3.206  -1.146   0.069  0.00  0.00    +0.000 A 
ENDROOT
BRANCH   6   7
ATOM      7  O   UNL     1       2.733  -2.407   0.071  0.00  0.00    +0.000 OA
ATOM      8  H   UNL     1       3.461  -3.050   0.071  0.00  0.00    +0.000 HD
ENDBRANCH   6   7
BRANCH   3   9
ATOM      9  C   UNL     1       2.652   2.505   0.058  0.00  0.00    +0.000 C 
ATOM     10  C   UNL     1       2.243   3.634   0.052  0.00  0.00    +0.000 C 
ENDBRANCH   3   9
TORSDOF 2
