REMARK  Name = ligand_9257043
REMARK  1 active torsions:
REMARK  status: ('A' for Active; 'I' for Inactive)
REMARK    1  A    between atoms: C_1  and  C_2
REMARK                            x       y       z     vdW  Elec       q    Type
REMARK                         _______ _______ _______ _____ _____    ______ ____
ROOT
ATOM      1  C   UNL     1       0.863  -0.114  -0.196  0.00  0.00    +0.000 C 
ATOM      2  C   UNL     1       2.375   0.026  -0.063  0.00  0.00    +0.000 C 
ATOM      3  C   UNL     1       2.877   1.283  -0.736  0.00  0.00    +0.000 C 
ATOM      4  C   UNL     1       4.260   1.624  -0.283  0.00  0.00    +0.000 C 
ATOM      5  N   UNL     1       5.226   0.857   0.114  0.00  0.00    +0.000 NA
ATOM      6  N   UNL     1       5.195  -0.509   0.132  0.00  0.00    +0.000 N 
ATOM      7  C   UNL     1       4.360  -1.381  -0.491  0.00  0.00    +0.000 C 
ATOM      8  S   UNL     1       4.943  -2.858  -1.005  0.00  0.00    +0.000 S 
ATOM      9  N   UNL     1       3.050  -1.101  -0.654  0.00  0.00    +0.000 N 
ATOM     10  H   UNL     1       6.116  -0.900   0.318  0.00  0.00    +0.000 HD
ATOM     11  H   UNL     1       2.510  -1.820  -1.126  0.00  0.00    +0.000 HD
ENDROOT
TORSDOF 0
