REMARK  Name = ligand_9258437
REMARK  1 active torsions:
REMARK  status: ('A' for Active; 'I' for Inactive)
REMARK    1  A    between atoms: C_1  and  C_2
REMARK                            x       y       z     vdW  Elec       q    Type
REMARK                         _______ _______ _______ _____ _____    ______ ____
ROOT
ATOM      1  C   UNL     1       1.152  -0.152   0.057  0.00  0.00    +0.000 C 
ATOM      2  C   UNL     1       2.631   0.156   0.053  0.00  0.00    +0.000 C 
ATOM      3  N   UNL     1       2.983   1.394   0.054  0.00  0.00    +0.000 NA
ATOM      4  C   UNL     1       4.271   1.824   0.049  0.00  0.00    +0.000 C 
ATOM      5  C   UNL     1       5.430   1.165   0.040  0.00  0.00    +0.000 C 
ATOM      6  N   UNL     1       5.634  -0.183   0.034  0.00  0.00    +0.000 N 
ATOM      7  C   UNL     1       4.750  -1.197   0.039  0.00  0.00    +0.000 C 
ATOM      8  S   UNL     1       5.319  -2.770   0.034  0.00  0.00    +0.000 S 
ATOM      9  N   UNL     1       3.409  -0.989   0.048  0.00  0.00    +0.000 N 
ATOM     10  H   UNL     1       6.601  -0.492   0.027  0.00  0.00    +0.000 HD
ATOM     11  H   UNL     1       2.897  -1.862   0.050  0.00  0.00    +0.000 HD
ENDROOT
TORSDOF 0
