REMARK  Name = ligand_925842
REMARK  2 active torsions:
REMARK  status: ('A' for Active; 'I' for Inactive)
REMARK    1  A    between atoms: C_1  and  C_2
REMARK    2  A    between atoms: C_5  and  C_6
REMARK                            x       y       z     vdW  Elec       q    Type
REMARK                         _______ _______ _______ _____ _____    ______ ____
ROOT
ATOM      1  C   UNL     1       1.080  -0.148  -0.053  0.00  0.00    +0.000 C 
ATOM      2  C   UNL     1       2.611  -0.085   0.017  0.00  0.00    +0.000 C 
ATOM      3  N   UNL     1       3.056  -0.937   1.130  0.00  0.00    +0.000 N 
ATOM      4  N   UNL     1       4.316  -1.412   1.138  0.00  0.00    +0.000 NA
ATOM      5  C   UNL     1       5.287  -0.567   1.324  0.00  0.00    +0.000 C 
ATOM      6  C   UNL     1       6.668  -1.171   1.490  0.00  0.00    +0.000 C 
ATOM      7  C   UNL     1       5.199   0.947   1.529  0.00  0.00    +0.000 C 
ATOM      8  C   UNL     1       4.141   1.765   0.857  0.00  0.00    +0.000 C 
ATOM      9  C   UNL     1       3.060   1.337   0.185  0.00  0.00    +0.000 C 
ATOM     10  H   UNL     1       2.423  -1.737   1.183  0.00  0.00    +0.000 HD
ENDROOT
TORSDOF 0
