REMARK  Name = ligand_9259965
REMARK  1 active torsions:
REMARK  status: ('A' for Active; 'I' for Inactive)
REMARK    1  A    between atoms: C_2  and  C_3
REMARK                            x       y       z     vdW  Elec       q    Type
REMARK                         _______ _______ _______ _____ _____    ______ ____
ROOT
ATOM      1  C   UNL     1       3.111   1.037   0.906  0.00  0.00    +0.000 C 
ATOM      2  C   UNL     1       2.749   0.897   2.386  0.00  0.00    +0.000 C 
ATOM      3  S   UNL     1       2.859   2.530   3.039  0.00  0.00    +0.000 S 
ATOM      4  O   UNL     1       1.577   2.887   3.617  0.00  0.00    +0.000 OA
ATOM      5  O   UNL     1       4.101   2.660   3.772  0.00  0.00    +0.000 OA
ATOM      6  C   UNL     1       3.030   3.285   1.439  0.00  0.00    +0.000 C 
ATOM      7  O   UNL     1       2.700   2.329   0.420  0.00  0.00    +0.000 OA
ENDROOT
BRANCH   1   9
ATOM      8  C   UNL     1       2.984  -0.912  -0.690  0.00  0.00    +0.000 C 
ATOM      9  C   UNL     1       2.393   0.021   0.068  0.00  0.00    +0.000 C 
ENDBRANCH   1   9
TORSDOF 1
