REMARK  Name = ligand_92595
REMARK  2 active torsions:
REMARK  status: ('A' for Active; 'I' for Inactive)
REMARK    1  A    between atoms: C_1  and  C_2
REMARK    2  A    between atoms: C_4  and  C_5
REMARK                            x       y       z     vdW  Elec       q    Type
REMARK                         _______ _______ _______ _____ _____    ______ ____
ROOT
ATOM      1  C   UNL     1       1.088  -0.014   0.004  0.00  0.00    +0.000 C 
ATOM      2  C   UNL     1       2.572  -0.054  -0.008  0.00  0.00    +0.000 C 
ATOM      3  C   UNL     1       3.348  -1.149  -0.052  0.00  0.00    +0.000 C 
ATOM      4  C   UNL     1       4.804  -0.791  -0.064  0.00  0.00    +0.000 C 
ATOM      5  C   UNL     1       4.795   0.706  -0.284  0.00  0.00    +0.000 C 
ATOM      6  C   UNL     1       5.788   1.429  -0.827  0.00  0.00    +0.000 C 
ATOM      7  C   UNL     1       3.404   1.201   0.030  0.00  0.00    +0.000 C 
ENDROOT
BRANCH   4   8
ATOM      8  C   UNL     1       5.399  -1.081   1.305  0.00  0.00    +0.000 C 
ATOM      9  C   UNL     1       5.909  -1.330   2.479  0.00  0.00    +0.000 C 
ENDBRANCH   4   8
TORSDOF 1
