REMARK  Name = ligand_9259050
REMARK  3 active torsions:
REMARK  status: ('A' for Active; 'I' for Inactive)
REMARK    1  A    between atoms: C_1  and  C_2
REMARK    2  A    between atoms: C_3  and  C_4
REMARK    3  A    between atoms: C_7  and  C_8
REMARK                            x       y       z     vdW  Elec       q    Type
REMARK                         _______ _______ _______ _____ _____    ______ ____
ROOT
ATOM      1  C   UNL     1       1.419   0.265   0.090  0.00  0.00    +0.000 C 
ATOM      2  C   UNL     1       2.833  -0.166   0.088  0.00  0.00    +0.000 A 
ATOM      3  C   UNL     1       3.468  -1.397   0.092  0.00  0.00    +0.000 A 
ATOM      4  C   UNL     1       2.843  -2.743   0.100  0.00  0.00    +0.000 C 
ATOM      5  C   UNL     1       4.862  -1.102   0.087  0.00  0.00    +0.000 A 
ATOM      6 CL   UNL     1       6.115  -2.251   0.090  0.00  0.00    +0.000 Cl
ATOM      7  C   UNL     1       4.984   0.269   0.081  0.00  0.00    +0.000 A 
ATOM      8  C   UNL     1       6.131   1.198   0.075  0.00  0.00    +0.000 C 
ATOM      9  O   UNL     1       3.750   0.843   0.081  0.00  0.00    +0.000 OA
ENDROOT
TORSDOF 0
