REMARK  Name = ligand_9259262
REMARK  4 active torsions:
REMARK  status: ('A' for Active; 'I' for Inactive)
REMARK    1  A    between atoms: C_1  and  C_2
REMARK    2  A    between atoms: C_3  and  N_4
REMARK    3  A    between atoms: C_5  and  O_6
REMARK    4  A    between atoms: C_7  and  C_8
REMARK                            x       y       z     vdW  Elec       q    Type
REMARK                         _______ _______ _______ _____ _____    ______ ____
ROOT
ATOM      1  C   UNL     1       1.126   0.006  -0.061  0.00  0.00    +0.000 C 
ATOM      2  C   UNL     1       2.609  -0.159  -0.064  0.00  0.00    +0.000 A 
ATOM      3  C   UNL     1       3.375  -1.306  -0.073  0.00  0.00    +0.000 A 
ATOM      4  C   UNL     1       4.768  -1.013  -0.070  0.00  0.00    +0.000 A 
ATOM      5  C   UNL     1       5.041   0.334  -0.062  0.00  0.00    +0.000 A 
ATOM      6  C   UNL     1       6.362   1.022  -0.065  0.00  0.00    +0.000 C 
ATOM      7  S   UNL     1       3.595   1.250  -0.053  0.00  0.00    +0.000 S 
ENDROOT
BRANCH   3   8
ATOM      8  N   UNL     1       2.862  -2.557  -0.087  0.00  0.00    +0.000 N 
ATOM      9  H   UNL     1       1.863  -2.727  -0.028  0.00  0.00    +0.000 HD
ATOM     10  H   UNL     1       3.411  -3.402  -0.003  0.00  0.00    +0.000 HD
ENDBRANCH   3   8
BRANCH   4  11
ATOM     11  O   UNL     1       5.762  -1.922  -0.078  0.00  0.00    +0.000 OA
ATOM     12  H   UNL     1       5.374  -2.810  -0.114  0.00  0.00    +0.000 HD
ENDBRANCH   4  11
TORSDOF 2
