REMARK  Name = ligand_9259402
REMARK  1 active torsions:
REMARK  status: ('A' for Active; 'I' for Inactive)
REMARK    1  A    between atoms: C_1  and  C_2
REMARK                            x       y       z     vdW  Elec       q    Type
REMARK                         _______ _______ _______ _____ _____    ______ ____
ROOT
ATOM      1  C   UNL     1       0.911  -0.038   0.053  0.00  0.00    +0.000 C 
ATOM      2  C   UNL     1       2.390   0.028   0.089  0.00  0.00    +0.000 A 
ATOM      3  C   UNL     1       3.252   1.091   0.150  0.00  0.00    +0.000 A 
ATOM      4  C   UNL     1       3.161   2.567   0.178  0.00  0.00    +0.000 C 
ATOM      5  C   UNL     1       4.650   2.955  -0.081  0.00  0.00    +0.000 C 
ATOM      6  N   UNL     1       5.422   1.739   0.231  0.00  0.00    +0.000 N 
ATOM      7  C   UNL     1       4.599   0.667   0.185  0.00  0.00    +0.000 A 
ATOM      8  N   UNL     1       4.841  -0.626   0.111  0.00  0.00    +0.000 NA
ATOM      9  S   UNL     1       3.358  -1.401   0.051  0.00  0.00    +0.000 S 
ATOM     10  H   UNL     1       6.368   1.653  -0.122  0.00  0.00    +0.000 HD
ENDROOT
TORSDOF 0
