REMARK  Name = ligand_9260291
REMARK  1 active torsions:
REMARK  status: ('A' for Active; 'I' for Inactive)
REMARK    1  A    between atoms: C_2  and  C_3
REMARK                            x       y       z     vdW  Elec       q    Type
REMARK                         _______ _______ _______ _____ _____    ______ ____
ROOT
ATOM      1  C   UNL     1       3.306  -1.189   0.606  0.00  0.00    +0.000 A 
ATOM      2  C   UNL     1       3.444  -2.535   0.619  0.00  0.00    +0.000 A 
ATOM      3  O   UNL     1       3.122  -3.690   0.026  0.00  0.00    +0.000 OA
ATOM      4  C   UNL     1       3.866  -4.414   1.053  0.00  0.00    +0.000 C 
ATOM      5  C   UNL     1       4.192  -3.109   1.592  0.00  0.00    +0.000 A 
ATOM      6  C   UNL     1       4.782  -2.245   2.437  0.00  0.00    +0.000 A 
ATOM      7  S   UNL     1       4.306  -0.625   1.953  0.00  0.00    +0.000 S 
ENDROOT
BRANCH   1   9
ATOM      8  C   UNL     1       1.563  -0.672  -0.966  0.00  0.00    +0.000 C 
ATOM      9  C   UNL     1       2.580  -0.273  -0.194  0.00  0.00    +0.000 C 
ENDBRANCH   1   9
TORSDOF 1
