REMARK  Name = ligand_9261159
REMARK  2 active torsions:
REMARK  status: ('A' for Active; 'I' for Inactive)
REMARK    1  A    between atoms: C_2  and  C_3
REMARK    2  A    between atoms: C_4  and  C_5
REMARK                            x       y       z     vdW  Elec       q    Type
REMARK                         _______ _______ _______ _____ _____    ______ ____
ROOT
ATOM      1  C   UNL     1       5.215   2.409  -1.168  0.00  0.00    +0.000 A 
ATOM      2  N   UNL     1       4.627   3.528  -1.615  0.00  0.00    +0.000 NA
ATOM      3  S   UNL     1       5.868   4.525  -2.119  0.00  0.00    +0.000 S 
ATOM      4  N   UNL     1       7.185   3.549  -1.782  0.00  0.00    +0.000 NA
ATOM      5  C   UNL     1       6.650   2.438  -1.270  0.00  0.00    +0.000 A 
ENDROOT
BRANCH   1   7
ATOM      6  C   UNL     1       3.153   1.224  -0.529  0.00  0.00    +0.000 C 
ATOM      7  C   UNL     1       4.492   1.288  -0.632  0.00  0.00    +0.000 C 
BRANCH   6   9
ATOM      8  C   UNL     1       1.105   0.064   0.107  0.00  0.00    +0.000 C 
ATOM      9  C   UNL     1       2.440   0.095   0.021  0.00  0.00    +0.000 C 
ENDBRANCH   6   9
ENDBRANCH   1   7
TORSDOF 2
