REMARK  Name = ligand_9261226
REMARK  2 active torsions:
REMARK  status: ('A' for Active; 'I' for Inactive)
REMARK    1  A    between atoms: C_2  and  C_3
REMARK    2  A    between atoms: C_3  and  C_5
REMARK                            x       y       z     vdW  Elec       q    Type
REMARK                         _______ _______ _______ _____ _____    ______ ____
ROOT
ATOM      1  C   UNL     1       4.812  -1.319   1.196  0.00  0.00    +0.000 A 
ATOM      2  N   UNL     1       5.587  -0.401   1.743  0.00  0.00    +0.000 NA
ATOM      3  C   UNL     1       6.846  -0.433   1.177  0.00  0.00    +0.000 A 
ATOM      4  C   UNL     1       7.030  -1.370   0.186  0.00  0.00    +0.000 A 
ATOM      5  S   UNL     1       5.572  -2.234  -0.064  0.00  0.00    +0.000 S 
ENDROOT
BRANCH   1   6
ATOM      6  C   UNL     1       2.359  -1.161   1.185  0.00  0.00    +0.000 C 
ATOM      7  C   UNL     1       3.512  -1.682   1.635  0.00  0.00    +0.000 C 
BRANCH   6   9
ATOM      8  C   UNL     1       0.951   0.280  -0.185  0.00  0.00    +0.000 C 
ATOM      9  C   UNL     1       2.171  -0.145   0.175  0.00  0.00    +0.000 C 
ENDBRANCH   6   9
ENDBRANCH   1   6
TORSDOF 2
