REMARK  Name = ligand_9261613
REMARK  6 active torsions:
REMARK  status: ('A' for Active; 'I' for Inactive)
REMARK    1  A    between atoms: C_1  and  C_2
REMARK    2  A    between atoms: C_2  and  C_3
REMARK    3  A    between atoms: C_2  and  N_5
REMARK    4  A    between atoms: N_5  and  O_6
REMARK    5  A    between atoms: N_5  and  C_7
REMARK    6  A    between atoms: C_7  and  N_8
REMARK                            x       y       z     vdW  Elec       q    Type
REMARK                         _______ _______ _______ _____ _____    ______ ____
ROOT
ATOM      1  N   UNL     1       3.072  -1.246   0.549  0.00  0.00    +0.000 N 
ENDROOT
BRANCH   1   3
ATOM      2  C   UNL     1       0.990  -0.078  -0.165  0.00  0.00    +0.000 C 
ATOM      3  C   UNL     1       2.512  -0.007  -0.027  0.00  0.00    +0.000 C 
BRANCH   3   4
ATOM      4  C   UNL     1       2.926   1.158   0.841  0.00  0.00    +0.000 C 
ATOM      5  C   UNL     1       3.719   2.158   0.432  0.00  0.00    +0.000 C 
ENDBRANCH   3   4
ENDBRANCH   1   3
BRANCH   1   6
ATOM      6  O   UNL     1       2.571  -1.516   1.855  0.00  0.00    +0.000 OA
ATOM      7  H   UNL     1       3.304  -1.163   2.394  0.00  0.00    +0.000 HD
ENDBRANCH   1   6
BRANCH   1   8
ATOM      8  C   UNL     1       3.454  -2.368  -0.160  0.00  0.00    +0.000 C 
ATOM      9  S   UNL     1       3.873  -2.447  -1.771  0.00  0.00    +0.000 S 
BRANCH   8  10
ATOM     10  N   UNL     1       3.540  -3.508   0.590  0.00  0.00    +0.000 N 
ATOM     11  H   UNL     1       3.001  -3.516   1.446  0.00  0.00    +0.000 HD
ATOM     12  H   UNL     1       3.686  -4.386   0.110  0.00  0.00    +0.000 HD
ENDBRANCH   8  10
ENDBRANCH   1   8
TORSDOF 5
