REMARK  Name = ligand_9261999
REMARK  4 active torsions:
REMARK  status: ('A' for Active; 'I' for Inactive)
REMARK    1  A    between atoms: C_1  and  C_2
REMARK    2  A    between atoms: C_2  and  C_3
REMARK    3  A    between atoms: C_3  and  N_4
REMARK    4  A    between atoms: C_3  and  C_5
REMARK                            x       y       z     vdW  Elec       q    Type
REMARK                         _______ _______ _______ _____ _____    ______ ____
ROOT
ATOM      1  C   UNL     1       2.762  -1.102   2.009  0.00  0.00    +0.000 C 
ENDROOT
BRANCH   1   2
ATOM      2  C   UNL     1       4.223   0.332   0.521  0.00  0.00    +0.000 A 
ATOM      3  C   UNL     1       5.095   1.347   0.871  0.00  0.00    +0.000 A 
ATOM      4  C   UNL     1       6.303   1.312   0.119  0.00  0.00    +0.000 A 
ATOM      5  C   UNL     1       6.327   0.264  -0.769  0.00  0.00    +0.000 A 
ATOM      6  S   UNL     1       4.919  -0.699  -0.664  0.00  0.00    +0.000 S 
ENDBRANCH   1   2
BRANCH   1   7
ATOM      7  N   UNL     1       1.465  -1.258   2.675  0.00  0.00    +0.000 NA
ATOM      8  H   UNL     1       1.380  -2.219   3.011  0.00  0.00    +0.000 HD
ATOM      9  H   UNL     1       0.703  -1.129   2.013  0.00  0.00    +0.000 HD
ENDBRANCH   1   7
BRANCH   1  11
ATOM     10  C   UNL     1       1.801  -0.003  -0.092  0.00  0.00    +0.000 C 
ATOM     11  C   UNL     1       2.819   0.110   1.051  0.00  0.00    +0.000 C 
ENDBRANCH   1  11
TORSDOF 3
