REMARK  Name = ligand_9261118
REMARK  3 active torsions:
REMARK  status: ('A' for Active; 'I' for Inactive)
REMARK    1  A    between atoms: C_2  and  C_3
REMARK    2  A    between atoms: C_3  and  C_4
REMARK    3  A    between atoms: C_4  and  C_5
REMARK                            x       y       z     vdW  Elec       q    Type
REMARK                         _______ _______ _______ _____ _____    ______ ____
ROOT
ATOM      1  C   UNL     1       5.219  -2.173   1.006  0.00  0.00    +0.000 A 
ATOM      2  C   UNL     1       5.616  -3.349   0.397  0.00  0.00    +0.000 A 
ATOM      3  N   UNL     1       6.252  -4.261   1.223  0.00  0.00    +0.000 NA
ATOM      4  N   UNL     1       6.356  -3.806   2.460  0.00  0.00    +0.000 NA
ATOM      5  S   UNL     1       5.698  -2.280   2.652  0.00  0.00    +0.000 S 
ENDROOT
BRANCH   1   6
ATOM      6  C   UNL     1       4.503  -0.986   0.458  0.00  0.00    +0.000 C 
BRANCH   6   7
ATOM      7  C   UNL     1       2.984  -1.153   0.574  0.00  0.00    +0.000 C 
BRANCH   7   9
ATOM      8  C   UNL     1       1.416   0.791   0.785  0.00  0.00    +0.000 C 
ATOM      9  C   UNL     1       2.242   0.042   0.045  0.00  0.00    +0.000 C 
ENDBRANCH   7   9
ENDBRANCH   6   7
ENDBRANCH   1   6
TORSDOF 3
