REMARK  Name = ligand_9262853
REMARK  3 active torsions:
REMARK  status: ('A' for Active; 'I' for Inactive)
REMARK    1  A    between atoms: C_1  and  C_2
REMARK    2  A    between atoms: C_2  and  N_3
REMARK    3  A    between atoms: C_5  and  N_6
REMARK                            x       y       z     vdW  Elec       q    Type
REMARK                         _______ _______ _______ _____ _____    ______ ____
ROOT
ATOM      1  N   UNL     1       2.882  -0.843   1.229  0.00  0.00    +0.000 N 
ATOM      2  C   UNL     1       3.417  -0.310   2.381  0.00  0.00    +0.000 A 
ATOM      3  C   UNL     1       3.754  -1.208   3.320  0.00  0.00    +0.000 A 
ATOM      4  S   UNL     1       3.364  -2.827   2.765  0.00  0.00    +0.000 S 
ATOM      5  C   UNL     1       2.751  -2.221   1.222  0.00  0.00    +0.000 A 
ATOM      6  O   UNL     1       2.296  -2.932   0.342  0.00  0.00    +0.000 OA
ENDROOT
BRANCH   3   7
ATOM      7  N   UNL     1       4.306  -0.931   4.543  0.00  0.00    +0.000 N 
ATOM      8  H   UNL     1       4.112   0.004   4.890  0.00  0.00    +0.000 HD
ATOM      9  H   UNL     1       4.107  -1.663   5.220  0.00  0.00    +0.000 HD
ENDBRANCH   3   7
BRANCH   1  11
ATOM     10  C   UNL     1       0.990   0.374   0.226  0.00  0.00    +0.000 C 
ATOM     11  C   UNL     1       2.451  -0.031   0.108  0.00  0.00    +0.000 C 
ENDBRANCH   1  11
TORSDOF 2
