REMARK  Name = ligand_9263401
REMARK  6 active torsions:
REMARK  status: ('A' for Active; 'I' for Inactive)
REMARK    1  A    between atoms: C_1  and  C_2
REMARK    2  A    between atoms: C_2  and  N_3
REMARK    3  A    between atoms: N_3  and  N_4
REMARK    4  A    between atoms: N_3  and  C_6
REMARK    5  A    between atoms: C_6  and  N_8
REMARK    6  A    between atoms: N_8  and  C_9
REMARK                            x       y       z     vdW  Elec       q    Type
REMARK                         _______ _______ _______ _____ _____    ______ ____
ROOT
ATOM      1  N   UNL     1       2.975   1.227  -0.490  0.00  0.00    +0.000 N 
ENDROOT
BRANCH   1   3
ATOM      2  C   UNL     1       2.008  -0.191   1.344  0.00  0.00    +0.000 C 
ATOM      3  C   UNL     1       2.315  -0.042  -0.138  0.00  0.00    +0.000 C 
ENDBRANCH   1   3
BRANCH   1   4
ATOM      4  N   UNL     1       2.268   2.294  -1.053  0.00  0.00    +0.000 NA
ATOM      5  C   UNL     1       0.994   2.390  -0.872  0.00  0.00    +0.000 C 
ENDBRANCH   1   4
BRANCH   1   6
ATOM      6  C   UNL     1       4.398   1.340  -0.532  0.00  0.00    +0.000 C 
ATOM      7  S   UNL     1       5.481   0.305   0.225  0.00  0.00    +0.000 S 
BRANCH   6   8
ATOM      8  N   UNL     1       4.781   2.434  -1.290  0.00  0.00    +0.000 N 
ATOM      9  C   UNL     1       6.096   2.778  -1.784  0.00  0.00    +0.000 C 
ATOM     10  H   UNL     1       3.970   2.882  -1.710  0.00  0.00    +0.000 HD
ENDBRANCH   6   8
ENDBRANCH   1   6
TORSDOF 4
