REMARK  Name = ligand_9263747
REMARK  3 active torsions:
REMARK  status: ('A' for Active; 'I' for Inactive)
REMARK    1  A    between atoms: C_2  and  O_3
REMARK    2  A    between atoms: O_3  and  C_4
REMARK    3  A    between atoms: C_4  and  C_5
REMARK                            x       y       z     vdW  Elec       q    Type
REMARK                         _______ _______ _______ _____ _____    ______ ____
ROOT
ATOM      1  C   UNL     1       4.898   2.581   0.087  0.00  0.00    +0.000 A 
ATOM      2  C   UNL     1       5.157   3.384  -1.009  0.00  0.00    +0.000 A 
ATOM      3  S   UNL     1       5.788   4.914  -0.579  0.00  0.00    +0.000 S 
ATOM      4  C   UNL     1       5.717   4.535   1.085  0.00  0.00    +0.000 A 
ATOM      5  C   UNL     1       5.223   3.268   1.305  0.00  0.00    +0.000 A 
ENDROOT
BRANCH   1   6
ATOM      6  C   UNL     1       4.332   1.193   0.019  0.00  0.00    +0.000 C 
BRANCH   6   7
ATOM      7  O   UNL     1       2.902   1.243   0.054  0.00  0.00    +0.000 OA
BRANCH   7   9
ATOM      8  C   UNL     1       0.981  -0.109   0.032  0.00  0.00    +0.000 C 
ATOM      9  C   UNL     1       2.309   0.012   0.003  0.00  0.00    +0.000 C 
ENDBRANCH   7   9
ENDBRANCH   6   7
ENDBRANCH   1   6
TORSDOF 3
