REMARK  Name = ligand_926304
REMARK  3 active torsions:
REMARK  status: ('A' for Active; 'I' for Inactive)
REMARK    1  A    between atoms: C_1  and  C_2
REMARK    2  A    between atoms: C_2  and  C_3
REMARK    3  A    between atoms: C_8  and  C_9
REMARK                            x       y       z     vdW  Elec       q    Type
REMARK                         _______ _______ _______ _____ _____    ______ ____
ROOT
ATOM      1  C   UNL     1       3.043  -1.114   0.838  0.00  0.00    +0.000 C 
ATOM      2  C   UNL     1       2.130  -2.326   1.198  0.00  0.00    +0.000 C 
ATOM      3  N   UNL     1       3.464  -2.972   1.609  0.00  0.00    +0.000 NA
ATOM      4  C   UNL     1       3.891  -2.104   2.741  0.00  0.00    +0.000 C 
ATOM      5  C   UNL     1       3.611  -0.711   2.192  0.00  0.00    +0.000 C 
ATOM      6  C   UNL     1       3.980  -2.267   0.338  0.00  0.00    +0.000 C 
ATOM      7  C   UNL     1       5.492  -2.150   0.228  0.00  0.00    +0.000 C 
ENDROOT
BRANCH   1   9
ATOM      8  C   UNL     1       1.363   0.693   0.405  0.00  0.00    +0.000 C 
ATOM      9  C   UNL     1       2.606  -0.022  -0.102  0.00  0.00    +0.000 C 
ENDBRANCH   1   9
TORSDOF 1
