REMARK  Name = ligand_9263109
REMARK  4 active torsions:
REMARK  status: ('A' for Active; 'I' for Inactive)
REMARK    1  A    between atoms: C_1  and  C_2
REMARK    2  A    between atoms: C_2  and  N_3
REMARK    3  A    between atoms: N_3  and  C_4
REMARK    4  A    between atoms: C_5  and  O_6
REMARK                            x       y       z     vdW  Elec       q    Type
REMARK                         _______ _______ _______ _____ _____    ______ ____
ROOT
ATOM      1  C   UNL     1       4.272  -0.186  -1.453  0.00  0.00    +0.000 A 
ATOM      2  C   UNL     1       4.946   0.104  -2.640  0.00  0.00    +0.000 A 
ATOM      3  N   UNL     1       6.319   0.067  -2.602  0.00  0.00    +0.000 NA
ATOM      4  C   UNL     1       6.706  -0.275  -1.397  0.00  0.00    +0.000 A 
ATOM      5  S   UNL     1       5.467  -0.551  -0.255  0.00  0.00    +0.000 S 
ENDROOT
BRANCH   1   6
ATOM      6  N   UNL     1       2.918  -0.215  -1.230  0.00  0.00    +0.000 N 
ATOM      7  H   UNL     1       2.295   0.149  -1.943  0.00  0.00    +0.000 HD
BRANCH   6   9
ATOM      8  C   UNL     1       0.870  -0.239   0.098  0.00  0.00    +0.000 C 
ATOM      9  C   UNL     1       2.380  -0.054   0.117  0.00  0.00    +0.000 C 
ENDBRANCH   6   9
ENDBRANCH   1   6
BRANCH   2  10
ATOM     10  O   UNL     1       4.301   0.423  -3.779  0.00  0.00    +0.000 OA
ATOM     11  H   UNL     1       3.348   0.355  -3.638  0.00  0.00    +0.000 HD
ENDBRANCH   2  10
TORSDOF 3
