REMARK  Name = ligand_9263080
REMARK  3 active torsions:
REMARK  status: ('A' for Active; 'I' for Inactive)
REMARK    1  A    between atoms: C_1  and  C_2
REMARK    2  A    between atoms: C_2  and  N_3
REMARK    3  A    between atoms: C_8  and  C_9
REMARK                            x       y       z     vdW  Elec       q    Type
REMARK                         _______ _______ _______ _____ _____    ______ ____
ROOT
ATOM      1  N   UNL     1       3.111  -1.012   0.780  0.00  0.00    +0.000 N 
ATOM      2  C   UNL     1       4.452  -1.119   0.968  0.00  0.00    +0.000 A 
ATOM      3  N   UNL     1       5.268  -0.077   1.108  0.00  0.00    +0.000 NA
ATOM      4  S   UNL     1       6.816  -0.604   1.324  0.00  0.00    +0.000 S 
ATOM      5  C   UNL     1       6.450  -2.264   1.213  0.00  0.00    +0.000 A 
ATOM      6  C   UNL     1       5.088  -2.416   1.015  0.00  0.00    +0.000 A 
ATOM      7  C   UNL     1       4.403  -3.730   0.858  0.00  0.00    +0.000 C 
ATOM      8  H   UNL     1       2.589  -1.845   0.537  0.00  0.00    +0.000 HD
ENDROOT
BRANCH   1  10
ATOM      9  C   UNL     1       1.051   0.141   0.181  0.00  0.00    +0.000 C 
ATOM     10  C   UNL     1       2.569   0.211   0.208  0.00  0.00    +0.000 C 
ENDBRANCH   1  10
TORSDOF 1
