REMARK  Name = ligand_9264539
REMARK  1 active torsions:
REMARK  status: ('A' for Active; 'I' for Inactive)
REMARK    1  A    between atoms: C_1  and  N_2
REMARK                            x       y       z     vdW  Elec       q    Type
REMARK                         _______ _______ _______ _____ _____    ______ ____
ROOT
ATOM      1  C   UNL     1       1.223   0.074  -0.289  0.00  0.00    +0.000 C 
ATOM      2  N   UNL     1       2.625  -0.096   0.057  0.00  0.00    +0.000 N 
ATOM      3  C   UNL     1       3.424   1.099   0.155  0.00  0.00    +0.000 C 
ATOM      4  C   UNL     1       3.508   1.894   1.425  0.00  0.00    +0.000 C 
ATOM      5  C   UNL     1       4.659   1.017   1.014  0.00  0.00    +0.000 C 
ATOM      6  O   UNL     1       4.780  -0.221   1.740  0.00  0.00    +0.000 OA
ATOM      7  N   UNL     1       4.487  -1.287   0.850  0.00  0.00    +0.000 N 
ATOM      8  C   UNL     1       3.203  -1.330   0.349  0.00  0.00    +0.000 C 
ATOM      9  S   UNL     1       2.501  -2.830   0.103  0.00  0.00    +0.000 S 
ATOM     10  H   UNL     1       4.858  -2.177   1.166  0.00  0.00    +0.000 HD
ENDROOT
TORSDOF 0
