REMARK  Name = ligand_9265660
REMARK  3 active torsions:
REMARK  status: ('A' for Active; 'I' for Inactive)
REMARK    1  A    between atoms: C_1  and  N_2
REMARK    2  A    between atoms: N_2  and  C_3
REMARK    3  A    between atoms: C_8  and  N_9
REMARK                            x       y       z     vdW  Elec       q    Type
REMARK                         _______ _______ _______ _____ _____    ______ ____
ROOT
ATOM      1  C   UNL     1       1.027   0.154   0.051  0.00  0.00    +0.000 C 
ATOM      2  N   UNL     1       2.431  -0.210   0.251  0.00  0.00    +0.000 N 
ATOM      3  C   UNL     1       3.203   0.787   0.998  0.00  0.00    +0.000 C 
ATOM      4  C   UNL     1       3.071  -0.745  -0.849  0.00  0.00    +0.000 A 
ATOM      5  N   UNL     1       2.701  -0.526  -2.113  0.00  0.00    +0.000 NA
ATOM      6  S   UNL     1       3.730  -1.314  -3.141  0.00  0.00    +0.000 S 
ATOM      7  C   UNL     1       4.688  -2.038  -1.928  0.00  0.00    +0.000 A 
ATOM      8  C   UNL     1       4.202  -1.645  -0.704  0.00  0.00    +0.000 A 
ENDROOT
BRANCH   8   9
ATOM      9  N   UNL     1       4.711  -2.085   0.475  0.00  0.00    +0.000 N 
ATOM     10  H   UNL     1       5.257  -2.939   0.510  0.00  0.00    +0.000 HD
ATOM     11  H   UNL     1       4.104  -1.975   1.290  0.00  0.00    +0.000 HD
ENDBRANCH   8   9
TORSDOF 1
