REMARK  Name = ligand_9265312
REMARK  2 active torsions:
REMARK  status: ('A' for Active; 'I' for Inactive)
REMARK    1  A    between atoms: C_1  and  N_2
REMARK    2  A    between atoms: C_6  and  C_8
REMARK                            x       y       z     vdW  Elec       q    Type
REMARK                         _______ _______ _______ _____ _____    ______ ____
ROOT
ATOM      1  C   UNL     1       1.099   0.144  -0.073  0.00  0.00    +0.000 C 
ATOM      2  N   UNL     1       2.540   0.034  -0.133  0.00  0.00    +0.000 N 
ATOM      3  C   UNL     1       3.176   0.615  -1.177  0.00  0.00    +0.000 A 
ATOM      4  N   UNL     1       2.718   1.625  -1.875  0.00  0.00    +0.000 NA
ATOM      5  C   UNL     1       3.615   1.960  -2.871  0.00  0.00    +0.000 A 
ATOM      6  C   UNL     1       4.760   1.185  -2.960  0.00  0.00    +0.000 A 
ATOM      7  S   UNL     1       4.705   0.017  -1.690  0.00  0.00    +0.000 S 
ATOM      8  H   UNL     1       2.911  -0.859   0.167  0.00  0.00    +0.000 HD
ENDROOT
BRANCH   6   9
ATOM      9  C   UNL     1       5.866   1.205  -3.855  0.00  0.00    +0.000 C 
ATOM     10  C   UNL     1       5.981   2.102  -4.841  0.00  0.00    +0.000 C 
ENDBRANCH   6   9
TORSDOF 1
