REMARK  Name = ligand_9265206
REMARK  2 active torsions:
REMARK  status: ('A' for Active; 'I' for Inactive)
REMARK    1  A    between atoms: C_1  and  N_2
REMARK    2  A    between atoms: N_5  and  C_6
REMARK                            x       y       z     vdW  Elec       q    Type
REMARK                         _______ _______ _______ _____ _____    ______ ____
ROOT
ATOM      1  C   UNL     1       1.153   0.088   0.069  0.00  0.00    +0.000 C 
ATOM      2  N   UNL     1       2.602   0.188   0.125  0.00  0.00    +0.000 NA
ATOM      3  C   UNL     1       3.207   0.871  -0.777  0.00  0.00    +0.000 C 
ATOM      4  C   UNL     1       4.716   1.009  -0.842  0.00  0.00    +0.000 C 
ATOM      5  N   UNL     1       4.848   1.812  -2.042  0.00  0.00    +0.000 N 
ATOM      6  C   UNL     1       6.150   2.098  -2.612  0.00  0.00    +0.000 C 
ATOM      7  C   UNL     1       3.612   2.110  -2.593  0.00  0.00    +0.000 C 
ATOM      8  S   UNL     1       3.274   2.965  -3.970  0.00  0.00    +0.000 S 
ATOM      9  N   UNL     1       2.648   1.563  -1.804  0.00  0.00    +0.000 N 
ATOM     10  H   UNL     1       1.664   1.637  -2.007  0.00  0.00    +0.000 HD
ENDROOT
TORSDOF 0
