REMARK  Name = ligand_9265009
REMARK  1 active torsions:
REMARK  status: ('A' for Active; 'I' for Inactive)
REMARK    1  A    between atoms: C_1  and  N_2
REMARK                            x       y       z     vdW  Elec       q    Type
REMARK                         _______ _______ _______ _____ _____    ______ ____
ROOT
ATOM      1  C   UNL     1       0.944   0.068  -0.033  0.00  0.00    +0.000 C 
ATOM      2  N   UNL     1       2.390   0.067  -0.127  0.00  0.00    +0.000 N 
ATOM      3  O   UNL     1       2.966   1.125   0.605  0.00  0.00    +0.000 OA
ATOM      4  S   UNL     1       4.425   1.610   0.021  0.00  0.00    +0.000 S 
ATOM      5  O   UNL     1       4.258   2.044  -1.353  0.00  0.00    +0.000 OA
ATOM      6  O   UNL     1       5.049   2.466   1.012  0.00  0.00    +0.000 OA
ATOM      7  C   UNL     1       5.211  -0.021   0.059  0.00  0.00    +0.000 C 
ATOM      8  N   UNL     1       4.396  -1.265   0.040  0.00  0.00    +0.000 NA
ATOM      9  C   UNL     1       3.126  -1.093  -0.056  0.00  0.00    +0.000 C 
ENDROOT
TORSDOF 0
