REMARK  Name = ligand_9265521
REMARK  4 active torsions:
REMARK  status: ('A' for Active; 'I' for Inactive)
REMARK    1  A    between atoms: C_1  and  N_2
REMARK    2  A    between atoms: N_2  and  C_3
REMARK    3  A    between atoms: C_3  and  C_4
REMARK    4  A    between atoms: C_7  and  C_8
REMARK                            x       y       z     vdW  Elec       q    Type
REMARK                         _______ _______ _______ _____ _____    ______ ____
ROOT
ATOM      1  C   UNL     1       3.444   0.966   2.136  0.00  0.00    +0.000 A 
ATOM      2  C   UNL     1       3.449   2.271   1.679  0.00  0.00    +0.000 A 
ATOM      3  C   UNL     1       3.912   3.192   2.663  0.00  0.00    +0.000 A 
ATOM      4  C   UNL     1       4.242   2.566   3.847  0.00  0.00    +0.000 A 
ATOM      5  C   UNL     1       4.756   3.170   5.108  0.00  0.00    +0.000 C 
ATOM      6  S   UNL     1       3.992   0.877   3.757  0.00  0.00    +0.000 S 
ENDROOT
BRANCH   1   7
ATOM      7  C   UNL     1       3.003  -0.282   1.424  0.00  0.00    +0.000 C 
BRANCH   7   9
ATOM      8  C   UNL     1       3.431  -1.765  -0.418  0.00  0.00    +0.000 C 
ATOM      9  N   UNL     1       3.834  -0.532   0.243  0.00  0.00    +0.000 NA
ATOM     10  H   UNL     1       3.734   0.249  -0.402  0.00  0.00    +0.000 HD
ENDBRANCH   7   9
ENDBRANCH   1   7
TORSDOF 2
