REMARK  Name = ligand_9266462
REMARK  5 active torsions:
REMARK  status: ('A' for Active; 'I' for Inactive)
REMARK    1  A    between atoms: C_1  and  N_2
REMARK    2  A    between atoms: N_2  and  S_3
REMARK    3  A    between atoms: S_3  and  C_6
REMARK    4  A    between atoms: C_7  and  C_8
REMARK    5  A    between atoms: C_7  and  C_9
REMARK                            x       y       z     vdW  Elec       q    Type
REMARK                         _______ _______ _______ _____ _____    ______ ____
ROOT
ATOM      1  S   UNL     1       3.057  -1.232  -1.293  0.00  0.00    +0.000 S 
ATOM      2  O   UNL     1       2.564  -2.474  -0.737  0.00  0.00    +0.000 OA
ATOM      3  O   UNL     1       2.572  -0.755  -2.573  0.00  0.00    +0.000 OA
ENDROOT
BRANCH   1   4
ATOM      4  C   UNL     1       4.789  -1.249  -1.297  0.00  0.00    +0.000 C 
ATOM      5  C   UNL     1       5.506  -2.033  -2.127  0.00  0.00    +0.000 C 
ATOM      6  C   UNL     1       4.938  -3.000  -3.131  0.00  0.00    +0.000 C 
ATOM      7  C   UNL     1       7.012  -1.993  -2.098  0.00  0.00    +0.000 C 
ENDBRANCH   1   4
BRANCH   1   9
ATOM      8  C   UNL     1       2.912   1.343  -0.528  0.00  0.00    +0.000 C 
ATOM      9  N   UNL     1       2.609  -0.048  -0.168  0.00  0.00    +0.000 NA
ATOM     10  H   UNL     1       1.623  -0.197   0.057  0.00  0.00    +0.000 HD
ENDBRANCH   1   9
TORSDOF 2
