REMARK  Name = ligand_9266237
REMARK  2 active torsions:
REMARK  status: ('A' for Active; 'I' for Inactive)
REMARK    1  A    between atoms: C_1  and  N_2
REMARK    2  A    between atoms: N_2  and  N_3
REMARK                            x       y       z     vdW  Elec       q    Type
REMARK                         _______ _______ _______ _____ _____    ______ ____
ROOT
ATOM      1  N   UNL     1       3.193  -1.200   0.495  0.00  0.00    +0.000 N 
ATOM      2  C   UNL     1       3.016  -2.556   0.495  0.00  0.00    +0.000 A 
ATOM      3  C   UNL     1       3.971  -3.109   1.319  0.00  0.00    +0.000 A 
ATOM      4 CL   UNL     1       4.164  -4.764   1.653  0.00  0.00    +0.000 Cl
ATOM      5  C   UNL     1       4.764  -2.048   1.818  0.00  0.00    +0.000 A 
ATOM      6 CL   UNL     1       6.101  -2.181   2.856  0.00  0.00    +0.000 Cl
ATOM      7  C   UNL     1       4.258  -0.879   1.292  0.00  0.00    +0.000 A 
ENDROOT
BRANCH   1   9
ATOM      8  C   UNL     1       1.101  -0.604  -0.558  0.00  0.00    +0.000 C 
ATOM      9  N   UNL     1       2.479  -0.227  -0.261  0.00  0.00    +0.000 N 
ATOM     10  H   UNL     1       2.466   0.670   0.221  0.00  0.00    +0.000 HD
ENDBRANCH   1   9
TORSDOF 1
