REMARK  Name = ligand_9266929
REMARK  4 active torsions:
REMARK  status: ('A' for Active; 'I' for Inactive)
REMARK    1  A    between atoms: C_1  and  O_2
REMARK    2  A    between atoms: O_2  and  C_3
REMARK    3  A    between atoms: C_3  and  C_4
REMARK    4  A    between atoms: C_4  and  C_5
REMARK                            x       y       z     vdW  Elec       q    Type
REMARK                         _______ _______ _______ _____ _____    ______ ____
ROOT
ATOM      1  C   UNL     1       3.752   2.681   1.352  0.00  0.00    +0.000 A 
ATOM      2  N   UNL     1       3.353   3.721   0.608  0.00  0.00    +0.000 NA
ATOM      3  S   UNL     1       3.897   5.103   1.372  0.00  0.00    +0.000 S 
ATOM      4  C   UNL     1       4.682   4.225   2.616  0.00  0.00    +0.000 A 
ATOM      5  N   UNL     1       4.532   2.926   2.491  0.00  0.00    +0.000 NA
ENDROOT
BRANCH   1   6
ATOM      6  C   UNL     1       3.956   0.869  -0.414  0.00  0.00    +0.000 C 
BRANCH   6   7
ATOM      7  C   UNL     1       3.435   1.254   0.977  0.00  0.00    +0.000 C 
BRANCH   7   9
ATOM      8  C   UNL     1       1.099   1.415   0.334  0.00  0.00    +0.000 C 
ATOM      9  O   UNL     1       2.070   0.848   1.200  0.00  0.00    +0.000 OA
ENDBRANCH   7   9
ENDBRANCH   6   7
ENDBRANCH   1   6
TORSDOF 3
