REMARK  Name = ligand_9267254
REMARK  2 active torsions:
REMARK  status: ('A' for Active; 'I' for Inactive)
REMARK    1  A    between atoms: C_1  and  S_2
REMARK    2  A    between atoms: S_2  and  C_5
REMARK                            x       y       z     vdW  Elec       q    Type
REMARK                         _______ _______ _______ _____ _____    ______ ____
ROOT
ATOM      1  C   UNL     1       3.549  -1.460  -0.194  0.00  0.00    +0.000 C 
ATOM      2  O   UNL     1       2.695  -2.611  -0.430  0.00  0.00    +0.000 OA
ATOM      3  C   UNL     1       3.163  -3.681   0.415  0.00  0.00    +0.000 C 
ATOM      4  C   UNL     1       4.059  -3.042   1.408  0.00  0.00    +0.000 C 
ATOM      5  C   UNL     1       4.275  -1.773   1.069  0.00  0.00    +0.000 C 
ENDROOT
BRANCH   1   7
ATOM      6  C   UNL     1       1.845   0.271  -1.577  0.00  0.00    +0.000 C 
ATOM      7  S   UNL     1       2.719   0.140  -0.038  0.00  0.00    +0.000 S 
ATOM      8  O   UNL     1       3.734   1.183  -0.043  0.00  0.00    +0.000 OA
ATOM      9  O   UNL     1       1.727   0.091   1.021  0.00  0.00    +0.000 OA
ENDBRANCH   1   7
TORSDOF 1
