REMARK  Name = ligand_9267351
REMARK  4 active torsions:
REMARK  status: ('A' for Active; 'I' for Inactive)
REMARK    1  A    between atoms: C_1  and  S_2
REMARK    2  A    between atoms: S_2  and  C_5
REMARK    3  A    between atoms: C_5  and  C_6
REMARK    4  A    between atoms: C_5  and  C_8
REMARK                            x       y       z     vdW  Elec       q    Type
REMARK                         _______ _______ _______ _____ _____    ______ ____
ROOT
ATOM      1  C   UNL     1       3.356   1.639   0.003  0.00  0.00    +0.000 C 
ENDROOT
BRANCH   1   3
ATOM      2  C   UNL     1       3.461  -0.819   1.433  0.00  0.00    +0.000 C 
ATOM      3  S   UNL     1       2.771  -0.045  -0.018  0.00  0.00    +0.000 S 
ATOM      4  O   UNL     1       3.325  -0.715  -1.181  0.00  0.00    +0.000 OA
ATOM      5  O   UNL     1       1.328  -0.002   0.156  0.00  0.00    +0.000 OA
ENDBRANCH   1   3
BRANCH   1   6
ATOM      6  C   UNL     1       2.779   2.306   1.216  0.00  0.00    +0.000 C 
ATOM      7  O   UNL     1       3.346   2.396   2.302  0.00  0.00    +0.000 OA
ENDBRANCH   1   6
BRANCH   1   8
ATOM      8  C   UNL     1       4.876   1.639   0.003  0.00  0.00    +0.000 C 
ATOM      9  C   UNL     1       6.180   1.639   0.003  0.00  0.00    +0.000 C 
ENDBRANCH   1   8
TORSDOF 3
