REMARK  Name = ligand_9267761
REMARK  1 active torsions:
REMARK  status: ('A' for Active; 'I' for Inactive)
REMARK    1  A    between atoms: N_1  and  C_2
REMARK                            x       y       z     vdW  Elec       q    Type
REMARK                         _______ _______ _______ _____ _____    ______ ____
ROOT
ATOM      1  C   UNL     1       2.176  -0.141  -0.225  0.00  0.00    +0.000 C 
ATOM      2  C   UNL     1       2.451  -1.575   0.161  0.00  0.00    +0.000 C 
ATOM      3  C   UNL     1       3.449  -1.999   0.955  0.00  0.00    +0.000 C 
ATOM      4  C   UNL     1       4.501  -1.124   1.566  0.00  0.00    +0.000 C 
ATOM      5  O   UNL     1       4.531   0.154   0.960  0.00  0.00    +0.000 OA
ATOM      6  S   UNL     1       3.136   0.995   0.916  0.00  0.00    +0.000 S 
ATOM      7  O   UNL     1       3.392   2.238   0.214  0.00  0.00    +0.000 OA
ATOM      8  O   UNL     1       2.565   1.002   2.250  0.00  0.00    +0.000 OA
ENDROOT
BRANCH   1   9
ATOM      9  N   UNL     1       0.708   0.063  -0.293  0.00  0.00    +0.000 NA
ATOM     10  H   UNL     1       0.330  -0.496  -1.053  0.00  0.00    +0.000 HD
ATOM     11  H   UNL     1       0.538   1.038  -0.544  0.00  0.00    +0.000 HD
ENDBRANCH   1   9
TORSDOF 1
