REMARK  Name = ligand_9267774
REMARK  2 active torsions:
REMARK  status: ('A' for Active; 'I' for Inactive)
REMARK    1  A    between atoms: N_1  and  C_2
REMARK    2  A    between atoms: C_4  and  N_7
REMARK                            x       y       z     vdW  Elec       q    Type
REMARK                         _______ _______ _______ _____ _____    ______ ____
ROOT
ATOM      1  C   UNL     1       0.786   0.301   0.005  0.00  0.00    +0.000 A 
ATOM      2  C   UNL     1       0.039   1.458   0.004  0.00  0.00    +0.000 A 
ATOM      3  C   UNL     1      -1.369   1.199  -0.006  0.00  0.00    +0.000 A 
ATOM      4  C   UNL     1      -1.638  -0.155  -0.011  0.00  0.00    +0.000 A 
ATOM      5  S   UNL     1      -0.206  -1.090  -0.006  0.00  0.00    +0.000 S 
ENDROOT
BRANCH   1   6
ATOM      6  N   UNL     1       2.125   0.205   0.014  0.00  0.00    +0.000 N 
ATOM      7  H   UNL     1       2.740   1.011  -0.014  0.00  0.00    +0.000 HD
ATOM      8  H   UNL     1       2.586  -0.698  -0.020  0.00  0.00    +0.000 HD
ENDBRANCH   1   6
BRANCH   3   9
ATOM      9  N   UNL     1      -2.400   2.208  -0.010  0.00  0.00    +0.000 N 
ATOM     10  O   UNL     1      -2.027   3.388  -0.006  0.00  0.00    +0.000 OA
ATOM     11  O   UNL     1      -3.575   1.820  -0.019  0.00  0.00    +0.000 OA
ENDBRANCH   3   9
TORSDOF 2
