REMARK  Name = ligand_9267126
REMARK  5 active torsions:
REMARK  status: ('A' for Active; 'I' for Inactive)
REMARK    1  A    between atoms: C_1  and  O_2
REMARK    2  A    between atoms: O_2  and  S_3
REMARK    3  A    between atoms: S_3  and  C_6
REMARK    4  A    between atoms: C_7  and  C_8
REMARK    5  A    between atoms: C_7  and  C_9
REMARK                            x       y       z     vdW  Elec       q    Type
REMARK                         _______ _______ _______ _____ _____    ______ ____
ROOT
ATOM      1  S   UNL     1       2.835  -1.604   0.837  0.00  0.00    +0.000 S 
ATOM      2  O   UNL     1       2.355  -0.445   0.114  0.00  0.00    +0.000 OA
ATOM      3  O   UNL     1       2.357  -1.887   2.177  0.00  0.00    +0.000 OA
ENDROOT
BRANCH   1   4
ATOM      4  C   UNL     1       4.569  -1.590   0.812  0.00  0.00    +0.000 C 
ATOM      5  C   UNL     1       5.337  -2.594   1.278  0.00  0.00    +0.000 C 
ATOM      6  C   UNL     1       4.844  -3.884   1.882  0.00  0.00    +0.000 C 
ATOM      7  C   UNL     1       6.840  -2.490   1.226  0.00  0.00    +0.000 C 
ENDBRANCH   1   4
BRANCH   1   9
ATOM      8  C   UNL     1       1.212  -3.250  -0.352  0.00  0.00    +0.000 C 
ATOM      9  O   UNL     1       2.560  -2.913  -0.093  0.00  0.00    +0.000 OA
ENDBRANCH   1   9
TORSDOF 2
