REMARK  Name = ligand_926945
REMARK  2 active torsions:
REMARK  status: ('A' for Active; 'I' for Inactive)
REMARK    1  A    between atoms: C_2  and  C_3
REMARK    2  A    between atoms: C_5  and  N_6
REMARK                            x       y       z     vdW  Elec       q    Type
REMARK                         _______ _______ _______ _____ _____    ______ ____
ROOT
ATOM      1  C   UNL     1       2.950   0.075  -1.163  0.00  0.00    +0.000 C 
ATOM      2  C   UNL     1       2.564   1.156  -2.135  0.00  0.00    +0.000 C 
ATOM      3  C   UNL     1       2.319  -0.288  -2.485  0.00  0.00    +0.000 C 
ENDROOT
BRANCH   3   4
ATOM      4  N   UNL     1       0.919  -0.735  -2.631  0.00  0.00    +0.000 NA
ATOM      5  C   UNL     1       0.810  -2.173  -2.959  0.00  0.00    +0.000 C 
ATOM      6  C   UNL     1      -0.134  -1.819  -4.115  0.00  0.00    +0.000 C 
ATOM      7  C   UNL     1       0.384  -0.386  -3.967  0.00  0.00    +0.000 C 
ENDBRANCH   3   4
BRANCH   1   9
ATOM      8  C   UNL     1       2.628   0.607   1.247  0.00  0.00    +0.000 C 
ATOM      9  C   UNL     1       2.228   0.018   0.111  0.00  0.00    +0.000 C 
ENDBRANCH   1   9
TORSDOF 2
