REMARK  Name = ligand_9269388
REMARK  2 active torsions:
REMARK  status: ('A' for Active; 'I' for Inactive)
REMARK    1  A    between atoms: N_1  and  C_2
REMARK    2  A    between atoms: C_2  and  N_4
REMARK                            x       y       z     vdW  Elec       q    Type
REMARK                         _______ _______ _______ _____ _____    ______ ____
ROOT
ATOM      1  N   UNL     1       3.039  -1.322   0.280  0.00  0.00    +0.000 N 
ATOM      2  C   UNL     1       4.096  -1.594   1.269  0.00  0.00    +0.000 C 
ATOM      3  C   UNL     1       5.266  -2.329   0.618  0.00  0.00    +0.000 C 
ATOM      4  C   UNL     1       4.777  -3.525  -0.197  0.00  0.00    +0.000 C 
ATOM      5  C   UNL     1       3.671  -3.105  -1.166  0.00  0.00    +0.000 C 
ATOM      6  N   UNL     1       2.561  -2.463  -0.453  0.00  0.00    +0.000 NA
ATOM      7  H   UNL     1       2.168  -3.117   0.229  0.00  0.00    +0.000 HD
ENDROOT
BRANCH   1   8
ATOM      8  C   UNL     1       2.406  -0.094   0.089  0.00  0.00    +0.000 C 
ATOM      9  S   UNL     1       2.728   1.349   0.855  0.00  0.00    +0.000 S 
BRANCH   8  10
ATOM     10  N   UNL     1       1.414  -0.132  -0.846  0.00  0.00    +0.000 N 
ATOM     11  H   UNL     1       0.858   0.682  -1.059  0.00  0.00    +0.000 HD
ATOM     12  H   UNL     1       1.215  -1.032  -1.265  0.00  0.00    +0.000 HD
ENDBRANCH   8  10
ENDBRANCH   1   8
TORSDOF 2
