REMARK  Name = ligand_9269160
REMARK  4 active torsions:
REMARK  status: ('A' for Active; 'I' for Inactive)
REMARK    1  A    between atoms: N_1  and  C_2
REMARK    2  A    between atoms: C_3  and  S_4
REMARK    3  A    between atoms: S_4  and  C_7
REMARK    4  A    between atoms: C_7  and  C_8
REMARK                            x       y       z     vdW  Elec       q    Type
REMARK                         _______ _______ _______ _____ _____    ______ ____
ROOT
ATOM      1  S   UNL     1       5.028  -1.230   0.392  0.00  0.00    +0.000 S 
ATOM      2  O   UNL     1       5.438  -0.997  -0.980  0.00  0.00    +0.000 OA
ATOM      3  O   UNL     1       5.480  -0.324   1.434  0.00  0.00    +0.000 OA
ENDROOT
BRANCH   1   5
ATOM      4  C   UNL     1       2.652  -1.128   1.594  0.00  0.00    +0.000 C 
ATOM      5  C   UNL     1       3.296  -1.352   0.444  0.00  0.00    +0.000 C 
BRANCH   4   6
ATOM      6  N   UNL     1       1.305  -1.257   1.811  0.00  0.00    +0.000 N 
ATOM      7  H   UNL     1       0.936  -0.658   2.549  0.00  0.00    +0.000 HD
ATOM      8  H   UNL     1       0.724  -1.246   0.975  0.00  0.00    +0.000 HD
ENDBRANCH   4   6
ENDBRANCH   1   5
BRANCH   1   9
ATOM      9  C   UNL     1       5.566  -2.853   0.867  0.00  0.00    +0.000 C 
BRANCH   9  10
ATOM     10  C   UNL     1       5.002  -3.822  -0.160  0.00  0.00    +0.000 C 
ATOM     11  N   UNL     1       4.534  -4.625  -1.012  0.00  0.00    +0.000 NA
ENDBRANCH   9  10
ENDBRANCH   1   9
TORSDOF 4
