REMARK  Name = ligand_9269833
REMARK  4 active torsions:
REMARK  status: ('A' for Active; 'I' for Inactive)
REMARK    1  A    between atoms: N_1  and  S_2
REMARK    2  A    between atoms: S_2  and  C_5
REMARK    3  A    between atoms: C_7  and  C_8
REMARK    4  A    between atoms: C_8  and  O_9
REMARK                            x       y       z     vdW  Elec       q    Type
REMARK                         _______ _______ _______ _____ _____    ______ ____
ROOT
ATOM      1  S   UNL     1       2.717  -0.216   0.022  0.00  0.00    +0.000 S 
ATOM      2  O   UNL     1       2.470   0.237  -1.325  0.00  0.00    +0.000 OA
ATOM      3  O   UNL     1       3.357   0.632   0.998  0.00  0.00    +0.000 OA
ENDROOT
BRANCH   1   4
ATOM      4  N   UNL     1       1.207  -0.537   0.667  0.00  0.00    +0.000 NA
ATOM      5  H   UNL     1       0.530   0.110   0.256  0.00  0.00    +0.000 HD
ATOM      6  H   UNL     1       1.249  -0.428   1.683  0.00  0.00    +0.000 HD
ENDBRANCH   1   4
BRANCH   1   7
ATOM      7  C   UNL     1       3.743  -1.689  -0.099  0.00  0.00    +0.000 C 
ATOM      8  C   UNL     1       3.191  -2.754  -1.016  0.00  0.00    +0.000 C 
ATOM      9  C   UNL     1       3.348  -3.039   0.454  0.00  0.00    +0.000 C 
BRANCH   9  10
ATOM     10  C   UNL     1       2.148  -3.419   1.244  0.00  0.00    +0.000 C 
BRANCH  10  11
ATOM     11  O   UNL     1       2.491  -3.441   2.618  0.00  0.00    +0.000 OA
ATOM     12  H   UNL     1       3.029  -4.239   2.765  0.00  0.00    +0.000 HD
ENDBRANCH  10  11
ENDBRANCH   9  10
ENDBRANCH   1   7
TORSDOF 4
