REMARK  Name = ligand_9269076
REMARK  3 active torsions:
REMARK  status: ('A' for Active; 'I' for Inactive)
REMARK    1  A    between atoms: C_2  and  C_3
REMARK    2  A    between atoms: C_3  and  N_4
REMARK    3  A    between atoms: N_4  and  C_5
REMARK                            x       y       z     vdW  Elec       q    Type
REMARK                         _______ _______ _______ _____ _____    ______ ____
ROOT
ATOM      1  N   UNL     1       4.372   1.239  -0.677  0.00  0.00    +0.000 N 
ATOM      2  H   UNL     1       3.863   2.022  -0.266  0.00  0.00    +0.000 HD
ENDROOT
BRANCH   1   3
ATOM      3  C   UNL     1       5.715   1.411  -0.796  0.00  0.00    +0.000 A 
ATOM      4  C   UNL     1       6.688   0.501  -1.154  0.00  0.00    +0.000 A 
ATOM      5  C   UNL     1       7.999   1.064  -1.155  0.00  0.00    +0.000 A 
ATOM      6  C   UNL     1       7.985   2.394  -0.805  0.00  0.00    +0.000 A 
ATOM      7  S   UNL     1       6.402   2.956  -0.495  0.00  0.00    +0.000 S 
ENDBRANCH   1   3
BRANCH   1   8
ATOM      8  C   UNL     1       3.812  -0.069  -0.344  0.00  0.00    +0.000 C 
BRANCH   8  10
ATOM      9  N   UNL     1       1.175  -0.025  -0.243  0.00  0.00    +0.000 NA
ATOM     10  C   UNL     1       2.335  -0.044  -0.296  0.00  0.00    +0.000 C 
ENDBRANCH   8  10
ENDBRANCH   1   8
TORSDOF 3
