REMARK  Name = ligand_9269996
REMARK  2 active torsions:
REMARK  status: ('A' for Active; 'I' for Inactive)
REMARK    1  A    between atoms: N_1  and  S_2
REMARK    2  A    between atoms: S_2  and  N_5
REMARK                            x       y       z     vdW  Elec       q    Type
REMARK                         _______ _______ _______ _____ _____    ______ ____
ROOT
ATOM      1  S   UNL     1       2.608  -0.194   0.069  0.00  0.00    +0.000 S 
ATOM      2  O   UNL     1       3.089  -0.083   1.422  0.00  0.00    +0.000 OA
ATOM      3  O   UNL     1       2.639  -1.432  -0.663  0.00  0.00    +0.000 OA
ENDROOT
BRANCH   1   4
ATOM      4  N   UNL     1       3.285   1.017  -0.881  0.00  0.00    +0.000 NA
ATOM      5  C   UNL     1       4.745   0.846  -1.116  0.00  0.00    +0.000 C 
ATOM      6  C   UNL     1       5.395   1.722  -0.062  0.00  0.00    +0.000 C 
ATOM      7  C   UNL     1       4.485   2.934  -0.016  0.00  0.00    +0.000 C 
ATOM      8  C   UNL     1       3.102   2.413  -0.393  0.00  0.00    +0.000 C 
ENDBRANCH   1   4
BRANCH   1   9
ATOM      9  N   UNL     1       1.020   0.305   0.069  0.00  0.00    +0.000 NA
ATOM     10  H   UNL     1       0.531  -0.161   0.835  0.00  0.00    +0.000 HD
ATOM     11  H   UNL     1       0.602   0.065  -0.828  0.00  0.00    +0.000 HD
ENDBRANCH   1   9
TORSDOF 2
