REMARK  Name = ligand_9269192
REMARK  0 active torsions:
REMARK  status: ('A' for Active; 'I' for Inactive)
REMARK                            x       y       z     vdW  Elec       q    Type
REMARK                         _______ _______ _______ _____ _____    ______ ____
ROOT
ATOM      1  N   UNL     1       1.249   0.479   0.259  0.00  0.00    +0.000 NA
ATOM      2  C   UNL     1       2.359   0.105  -0.275  0.00  0.00    +0.000 C 
ATOM      3  N   UNL     1       3.075   0.804  -1.201  0.00  0.00    +0.000 N 
ATOM      4  C   UNL     1       2.731   2.169  -1.578  0.00  0.00    +0.000 C 
ATOM      5  S   UNL     1       4.188   2.989  -2.138  0.00  0.00    +0.000 S 
ATOM      6  O   UNL     1       4.169   3.096  -3.586  0.00  0.00    +0.000 OA
ATOM      7  O   UNL     1       4.481   4.127  -1.289  0.00  0.00    +0.000 OA
ATOM      8  C   UNL     1       5.203   1.627  -1.667  0.00  0.00    +0.000 C 
ATOM      9  O   UNL     1       4.449   0.481  -1.215  0.00  0.00    +0.000 OA
ATOM     10  H   UNL     1       0.932  -0.241   0.920  0.00  0.00    +0.000 HD
ENDROOT
TORSDOF 0
