REMARK  Name = ligand_9269452
REMARK  2 active torsions:
REMARK  status: ('A' for Active; 'I' for Inactive)
REMARK    1  A    between atoms: N_1  and  C_2
REMARK    2  A    between atoms: C_2  and  N_4
REMARK                            x       y       z     vdW  Elec       q    Type
REMARK                         _______ _______ _______ _____ _____    ______ ____
ROOT
ATOM      1  N   UNL     1       3.227   1.041   0.520  0.00  0.00    +0.000 N 
ATOM      2  C   UNL     1       4.591   1.068   0.641  0.00  0.00    +0.000 C 
ATOM      3  N   UNL     1       5.219   1.334   1.742  0.00  0.00    +0.000 NA
ATOM      4  C   UNL     1       6.646   1.363   1.367  0.00  0.00    +0.000 C 
ATOM      5  C   UNL     1       6.745   0.545   0.092  0.00  0.00    +0.000 C 
ATOM      6  C   UNL     1       5.416   0.810  -0.579  0.00  0.00    +0.000 C 
ATOM      7  H   UNL     1       2.838   0.989  -0.413  0.00  0.00    +0.000 HD
ENDROOT
BRANCH   1   8
ATOM      8  C   UNL     1       2.285   1.170   1.507  0.00  0.00    +0.000 C 
ATOM      9  S   UNL     1       0.673   1.321   1.144  0.00  0.00    +0.000 S 
BRANCH   8  10
ATOM     10  N   UNL     1       2.718   1.119   2.784  0.00  0.00    +0.000 N 
ATOM     11  H   UNL     1       2.085   1.278   3.554  0.00  0.00    +0.000 HD
ATOM     12  H   UNL     1       3.721   1.183   2.954  0.00  0.00    +0.000 HD
ENDBRANCH   8  10
ENDBRANCH   1   8
TORSDOF 2
