REMARK  Name = ligand_9270578
REMARK  1 active torsions:
REMARK  status: ('A' for Active; 'I' for Inactive)
REMARK    1  A    between atoms: O_1  and  C_2
REMARK                            x       y       z     vdW  Elec       q    Type
REMARK                         _______ _______ _______ _____ _____    ______ ____
ROOT
ATOM      1  C   UNL     1       2.602  -0.133  -0.093  0.00  0.00    +0.000 A 
ATOM      2  C   UNL     1       3.419   0.973  -0.043  0.00  0.00    +0.000 A 
ATOM      3  S   UNL     1       5.042   0.472   0.176  0.00  0.00    +0.000 S 
ATOM      4  C   UNL     1       4.523  -1.181   0.218  0.00  0.00    +0.000 A 
ATOM      5  N   UNL     1       3.230  -1.344   0.014  0.00  0.00    +0.000 NA
ATOM      6  N   UNL     1       5.445  -2.160   0.483  0.00  0.00    +0.000 N 
ATOM      7  C   UNL     1       4.877  -3.353   1.140  0.00  0.00    +0.000 C 
ATOM      8  C   UNL     1       5.306  -3.403  -0.288  0.00  0.00    +0.000 C 
ENDROOT
BRANCH   1   9
ATOM      9  O   UNL     1       1.269  -0.039  -0.222  0.00  0.00    +0.000 OA
ATOM     10  H   UNL     1       0.985   0.888  -0.189  0.00  0.00    +0.000 HD
ENDBRANCH   1   9
TORSDOF 1
