REMARK  Name = ligand_9270106
REMARK  2 active torsions:
REMARK  status: ('A' for Active; 'I' for Inactive)
REMARK    1  A    between atoms: O_1  and  C_2
REMARK    2  A    between atoms: C_4  and  C_5
REMARK                            x       y       z     vdW  Elec       q    Type
REMARK                         _______ _______ _______ _____ _____    ______ ____
ROOT
ATOM      1  C   UNL     1       2.439   0.140  -0.100  0.00  0.00    +0.000 C 
ATOM      2  C   UNL     1       3.337   0.771  -1.107  0.00  0.00    +0.000 C 
ATOM      3  C   UNL     1       3.190  -0.736  -1.083  0.00  0.00    +0.000 C 
ENDROOT
BRANCH   3   4
ATOM      4  C   UNL     1       2.499  -1.447  -2.246  0.00  0.00    +0.000 A 
ATOM      5  N   UNL     1       2.924  -2.663  -2.591  0.00  0.00    +0.000 NA
ATOM      6  S   UNL     1       2.019  -3.200  -3.873  0.00  0.00    +0.000 S 
ATOM      7  C   UNL     1       1.050  -1.799  -4.004  0.00  0.00    +0.000 A 
ATOM      8  C   UNL     1       1.436  -0.905  -3.028  0.00  0.00    +0.000 A 
ENDBRANCH   3   4
BRANCH   1   9
ATOM      9  O   UNL     1       1.038   0.374  -0.308  0.00  0.00    +0.000 OA
ATOM     10  H   UNL     1       0.562   0.435   0.538  0.00  0.00    +0.000 HD
ENDBRANCH   1   9
TORSDOF 2
