REMARK  Name = ligand_9270189
REMARK  1 active torsions:
REMARK  status: ('A' for Active; 'I' for Inactive)
REMARK    1  A    between atoms: O_1  and  C_2
REMARK                            x       y       z     vdW  Elec       q    Type
REMARK                         _______ _______ _______ _____ _____    ______ ____
ROOT
ATOM      1  C   UNL     1       2.306   0.047   0.020  0.00  0.00    +0.000 C 
ATOM      2  C   UNL     1       2.877  -1.249   0.712  0.00  0.00    +0.000 C 
ATOM      3  C   UNL     1       4.039  -0.694   1.417  0.00  0.00    +0.000 A 
ATOM      4  C   UNL     1       4.090   0.670   1.444  0.00  0.00    +0.000 A 
ATOM      5  C   UNL     1       2.946   1.289   0.751  0.00  0.00    +0.000 C 
ATOM      6  N   UNL     1       5.175   1.222   2.059  0.00  0.00    +0.000 NA
ATOM      7  N   UNL     1       5.972   0.257   2.524  0.00  0.00    +0.000 NA
ATOM      8  S   UNL     1       5.385  -1.306   2.194  0.00  0.00    +0.000 S 
ENDROOT
BRANCH   1   9
ATOM      9  O   UNL     1       0.888   0.094   0.107  0.00  0.00    +0.000 OA
ATOM     10  H   UNL     1       0.534  -0.643  -0.422  0.00  0.00    +0.000 HD
ENDBRANCH   1   9
TORSDOF 1
