REMARK  Name = ligand_9271863
REMARK  0 active torsions:
REMARK  status: ('A' for Active; 'I' for Inactive)
REMARK                            x       y       z     vdW  Elec       q    Type
REMARK                         _______ _______ _______ _____ _____    ______ ____
ROOT
ATOM      1  O   UNL     1       1.077   0.063   0.169  0.00  0.00    +0.000 OA
ATOM      2  S   UNL     1       2.498  -0.005  -0.083  0.00  0.00    +0.000 S 
ATOM      3  O   UNL     1       3.058  -0.069  -1.413  0.00  0.00    +0.000 OA
ATOM      4  C   UNL     1       3.240  -1.258   0.935  0.00  0.00    +0.000 C 
ATOM      5  C   UNL     1       4.601  -0.693   1.295  0.00  0.00    +0.000 C 
ATOM      6  C   UNL     1       4.418   0.797   1.487  0.00  0.00    +0.000 C 
ATOM      7  C   UNL     1       4.761   1.417   2.818  0.00  0.00    +0.000 C 
ATOM      8  C   UNL     1       5.646   1.663   1.633  0.00  0.00    +0.000 C 
ATOM      9  N   UNL     1       3.264   1.313   0.702  0.00  0.00    +0.000 NA
ATOM     10  H   UNL     1       3.555   1.981  -0.017  0.00  0.00    +0.000 HD
ENDROOT
TORSDOF 0
