REMARK  Name = ligand_927421
REMARK  2 active torsions:
REMARK  status: ('A' for Active; 'I' for Inactive)
REMARK    1  A    between atoms: C_1  and  C_2
REMARK    2  A    between atoms: C_2  and  C_3
REMARK                            x       y       z     vdW  Elec       q    Type
REMARK                         _______ _______ _______ _____ _____    ______ ____
ROOT
ATOM      1  C   UNL     1       2.939   0.995  -1.266  0.00  0.00    +0.000 C 
ATOM      2  C   UNL     1       3.129   2.438  -0.792  0.00  0.00    +0.000 C 
ATOM      3  C   UNL     1       3.170   3.203  -2.103  0.00  0.00    +0.000 C 
ATOM      4  C   UNL     1       2.047   2.521  -2.865  0.00  0.00    +0.000 C 
ATOM      5  C   UNL     1       2.237   2.039  -4.315  0.00  0.00    +0.000 C 
ATOM      6  C   UNL     1       2.762   0.736  -3.696  0.00  0.00    +0.000 C 
ATOM      7  N   UNL     1       2.039   1.083  -2.442  0.00  0.00    +0.000 NA
ENDROOT
BRANCH   1   9
ATOM      8  C   UNL     1       2.230  -1.357  -0.623  0.00  0.00    +0.000 C 
ATOM      9  C   UNL     1       2.339   0.098  -0.179  0.00  0.00    +0.000 C 
ENDBRANCH   1   9
TORSDOF 1
