REMARK  Name = ligand_927419
REMARK  1 active torsions:
REMARK  status: ('A' for Active; 'I' for Inactive)
REMARK    1  A    between atoms: C_2  and  C_3
REMARK                            x       y       z     vdW  Elec       q    Type
REMARK                         _______ _______ _______ _____ _____    ______ ____
ROOT
ATOM      1  C   UNL     1       3.049   1.380  -0.116  0.00  0.00    +0.000 A 
ATOM      2  C   UNL     1       2.785   2.626   0.481  0.00  0.00    +0.000 A 
ATOM      3  C   UNL     1       3.793   3.588   0.075  0.00  0.00    +0.000 A 
ATOM      4  C   UNL     1       4.598   2.858  -0.718  0.00  0.00    +0.000 A 
ATOM      5  C   UNL     1       5.695   2.639  -1.656  0.00  0.00    +0.000 C 
ATOM      6  C   UNL     1       5.123   1.196  -1.740  0.00  0.00    +0.000 C 
ATOM      7  N   UNL     1       4.246   1.579  -0.702  0.00  0.00    +0.000 N 
ENDROOT
BRANCH   1   9
ATOM      8  C   UNL     1       1.284  -0.121   0.492  0.00  0.00    +0.000 C 
ATOM      9  C   UNL     1       2.423   0.116  -0.169  0.00  0.00    +0.000 C 
ENDBRANCH   1   9
TORSDOF 1
