REMARK  Name = ligand_927688
REMARK  1 active torsions:
REMARK  status: ('A' for Active; 'I' for Inactive)
REMARK    1  A    between atoms: C_2  and  C_3
REMARK                            x       y       z     vdW  Elec       q    Type
REMARK                         _______ _______ _______ _____ _____    ______ ____
ROOT
ATOM      1  C   UNL     1       3.840  -0.097   0.021  0.00  0.00    +0.000 C 
ATOM      2  C   UNL     1       4.301   1.115  -0.857  0.00  0.00    +0.000 C 
ATOM      3  C   UNL     1       5.666   1.584  -0.459  0.00  0.00    +0.000 C 
ATOM      4  C   UNL     1       6.469   0.704   0.166  0.00  0.00    +0.000 C 
ATOM      5  C   UNL     1       6.119  -0.713   0.405  0.00  0.00    +0.000 C 
ATOM      6  C   UNL     1       5.789  -1.499  -0.827  0.00  0.00    +0.000 C 
ATOM      7  N   UNL     1       4.724  -1.260   0.134  0.00  0.00    +0.000 NA
ENDROOT
BRANCH   1   9
ATOM      8  C   UNL     1       1.016  -0.097   0.021  0.00  0.00    +0.000 C 
ATOM      9  C   UNL     1       2.320  -0.097   0.021  0.00  0.00    +0.000 C 
ENDBRANCH   1   9
TORSDOF 1
