REMARK  Name = ligand_927722
REMARK  3 active torsions:
REMARK  status: ('A' for Active; 'I' for Inactive)
REMARK    1  A    between atoms: C_1  and  C_2
REMARK    2  A    between atoms: C_2  and  C_3
REMARK    3  A    between atoms: C_3  and  C_4
REMARK                            x       y       z     vdW  Elec       q    Type
REMARK                         _______ _______ _______ _____ _____    ______ ____
ROOT
ATOM      1  C   UNL     1       2.975   0.767  -1.146  0.00  0.00    +0.000 C 
ATOM      2  C   UNL     1       4.044   0.053  -1.987  0.00  0.00    +0.000 C 
ATOM      3  C   UNL     1       3.587   2.054  -0.516  0.00  0.00    +0.000 C 
ATOM      4  C   UNL     1       2.410   3.026  -0.373  0.00  0.00    +0.000 C 
ATOM      5  C   UNL     1       1.570   2.730  -1.578  0.00  0.00    +0.000 C 
ATOM      6  N   UNL     1       0.557   1.694  -1.532  0.00  0.00    +0.000 NA
ATOM      7  C   UNL     1       1.875   1.331  -2.040  0.00  0.00    +0.000 C 
ATOM      8  H   UNL     1      -0.110   1.803  -2.299  0.00  0.00    +0.000 HD
ENDROOT
BRANCH   1  10
ATOM      9  C   UNL     1       1.798  -1.456  -0.490  0.00  0.00    +0.000 C 
ATOM     10  C   UNL     1       2.440  -0.157  -0.023  0.00  0.00    +0.000 C 
ENDBRANCH   1  10
TORSDOF 1
