REMARK  Name = ligand_927931
REMARK  3 active torsions:
REMARK  status: ('A' for Active; 'I' for Inactive)
REMARK    1  A    between atoms: C_1  and  C_2
REMARK    2  A    between atoms: C_2  and  C_3
REMARK    3  A    between atoms: C_7  and  N_8
REMARK                            x       y       z     vdW  Elec       q    Type
REMARK                         _______ _______ _______ _____ _____    ______ ____
ROOT
ATOM      1  C   UNL     1       3.059  -0.179   1.455  0.00  0.00    +0.000 C 
ATOM      2  C   UNL     1       2.575  -1.495   2.087  0.00  0.00    +0.000 C 
ATOM      3  C   UNL     1       3.033  -1.633   3.537  0.00  0.00    +0.000 C 
ATOM      4  C   UNL     1       2.584  -0.442   4.377  0.00  0.00    +0.000 C 
ATOM      5  C   UNL     1       3.096   0.872   3.781  0.00  0.00    +0.000 C 
ATOM      6  C   UNL     1       2.643   1.029   2.321  0.00  0.00    +0.000 C 
ENDROOT
BRANCH   5   7
ATOM      7  N   UNL     1       2.621   1.995   4.591  0.00  0.00    +0.000 NA
ATOM      8  H   UNL     1       1.602   2.023   4.577  0.00  0.00    +0.000 HD
ATOM      9  H   UNL     1       2.932   2.872   4.175  0.00  0.00    +0.000 HD
ENDBRANCH   5   7
BRANCH   1  11
ATOM     10  C   UNL     1       3.045  -1.087  -0.958  0.00  0.00    +0.000 C 
ATOM     11  C   UNL     1       2.561  -0.007   0.006  0.00  0.00    +0.000 C 
ENDBRANCH   1  11
TORSDOF 2
