REMARK  Name = ligand_928251
REMARK  4 active torsions:
REMARK  status: ('A' for Active; 'I' for Inactive)
REMARK    1  A    between atoms: C_1  and  C_2
REMARK    2  A    between atoms: C_2  and  C_3
REMARK    3  A    between atoms: C_5  and  C_6
REMARK    4  A    between atoms: C_5  and  N_7
REMARK                            x       y       z     vdW  Elec       q    Type
REMARK                         _______ _______ _______ _____ _____    ______ ____
ROOT
ATOM      1  C   UNL     1       3.004  -1.114   1.076  0.00  0.00    +0.000 C 
ATOM      2  C   UNL     1       3.202  -2.511   0.476  0.00  0.00    +0.000 C 
ATOM      3  C   UNL     1       2.750  -3.495   1.572  0.00  0.00    +0.000 C 
ATOM      4  C   UNL     1       1.495  -4.257   1.116  0.00  0.00    +0.000 C 
ATOM      5  C   UNL     1       2.437  -2.581   2.773  0.00  0.00    +0.000 C 
ATOM      6  N   UNL     1       2.032  -1.313   2.160  0.00  0.00    +0.000 NA
ATOM      7  H   UNL     1       2.102  -0.556   2.838  0.00  0.00    +0.000 HD
ENDROOT
BRANCH   3   8
ATOM      8  N   UNL     1       3.804  -4.468   1.886  0.00  0.00    +0.000 NA
ATOM      9  H   UNL     1       3.999  -5.035   1.062  0.00  0.00    +0.000 HD
ATOM     10  H   UNL     1       3.470  -5.115   2.599  0.00  0.00    +0.000 HD
ENDBRANCH   3   8
BRANCH   1  12
ATOM     11  C   UNL     1       3.453   0.160  -1.078  0.00  0.00    +0.000 C 
ATOM     12  C   UNL     1       2.499  -0.064   0.086  0.00  0.00    +0.000 C 
ENDBRANCH   1  12
TORSDOF 2
