REMARK  Name = ligand_928364
REMARK  2 active torsions:
REMARK  status: ('A' for Active; 'I' for Inactive)
REMARK    1  A    between atoms: C_1  and  C_2
REMARK    2  A    between atoms: C_2  and  C_3
REMARK                            x       y       z     vdW  Elec       q    Type
REMARK                         _______ _______ _______ _____ _____    ______ ____
ROOT
ATOM      1  C   UNL     1       2.998   1.180  -0.705  0.00  0.00    +0.000 C 
ATOM      2  C   UNL     1       3.799   2.008   0.315  0.00  0.00    +0.000 C 
ATOM      3  C   UNL     1       2.886   2.784   1.258  0.00  0.00    +0.000 C 
ATOM      4  C   UNL     1       1.805   3.469   0.453  0.00  0.00    +0.000 C 
ATOM      5  N   UNL     1       1.424   4.676   0.725  0.00  0.00    +0.000 NA
ATOM      6  N   UNL     1       1.201   2.755  -0.557  0.00  0.00    +0.000 N 
ATOM      7  N   UNL     1       2.071   2.057  -1.444  0.00  0.00    +0.000 NA
ATOM      8  H   UNL     1       1.964   5.053   1.511  0.00  0.00    +0.000 HD
ATOM      9  H   UNL     1       0.494   3.327  -1.023  0.00  0.00    +0.000 HD
ATOM     10  H   UNL     1       2.616   2.735  -1.984  0.00  0.00    +0.000 HD
ENDROOT
BRANCH   1  12
ATOM     11  C   UNL     1       1.567  -0.912  -1.065  0.00  0.00    +0.000 C 
ATOM     12  C   UNL     1       2.317  -0.044  -0.063  0.00  0.00    +0.000 C 
ENDBRANCH   1  12
TORSDOF 1
