REMARK  Name = ligand_928757
REMARK  2 active torsions:
REMARK  status: ('A' for Active; 'I' for Inactive)
REMARK    1  A    between atoms: C_1  and  C_2
REMARK    2  A    between atoms: N_8  and  N_9
REMARK                            x       y       z     vdW  Elec       q    Type
REMARK                         _______ _______ _______ _____ _____    ______ ____
ROOT
ATOM      1  C   UNL     1       1.107  -0.127   0.416  0.00  0.00    +0.000 C 
ATOM      2  C   UNL     1       2.507  -0.001  -0.089  0.00  0.00    +0.000 C 
ATOM      3  C   UNL     1       2.969   0.911  -0.961  0.00  0.00    +0.000 C 
ATOM      4  C   UNL     1       4.398   0.876  -1.524  0.00  0.00    +0.000 C 
ATOM      5  C   UNL     1       5.473   1.328  -0.543  0.00  0.00    +0.000 C 
ATOM      6  N   UNL     1       4.401   1.830  -2.696  0.00  0.00    +0.000 NA
ATOM      7  C   UNL     1       3.204   2.345  -2.645  0.00  0.00    +0.000 C 
ATOM      8  N   UNL     1       2.369   1.948  -1.635  0.00  0.00    +0.000 N 
ENDROOT
BRANCH   8   9
ATOM      9  N   UNL     1       0.989   2.105  -1.766  0.00  0.00    +0.000 NA
ATOM     10  H   UNL     1       0.777   2.982  -2.242  0.00  0.00    +0.000 HD
ATOM     11  H   UNL     1       0.587   2.216  -0.835  0.00  0.00    +0.000 HD
ENDBRANCH   8   9
TORSDOF 1
