REMARK  Name = ligand_92917
REMARK  5 active torsions:
REMARK  status: ('A' for Active; 'I' for Inactive)
REMARK    1  A    between atoms: C_1  and  C_2
REMARK    2  A    between atoms: C_2  and  C_3
REMARK    3  A    between atoms: C_5  and  C_6
REMARK    4  A    between atoms: C_5  and  C_8
REMARK    5  A    between atoms: C_6  and  C_7
REMARK                            x       y       z     vdW  Elec       q    Type
REMARK                         _______ _______ _______ _____ _____    ______ ____
ROOT
ATOM      1  C   UNL     1       2.752   0.373  -1.597  0.00  0.00    +0.000 C 
ATOM      2  C   UNL     1       2.625   1.813  -2.004  0.00  0.00    +0.000 C 
ATOM      3  C   UNL     1       1.759   0.777  -2.694  0.00  0.00    +0.000 C 
ENDROOT
BRANCH   1   5
ATOM      4  C   UNL     1       2.576  -1.459   0.110  0.00  0.00    +0.000 C 
ATOM      5  C   UNL     1       2.404   0.024  -0.177  0.00  0.00    +0.000 C 
ENDBRANCH   1   5
BRANCH   3   6
ATOM      6  C   UNL     1       2.112   0.385  -4.124  0.00  0.00    +0.000 C 
ATOM      7  C   UNL     1       1.978   1.537  -5.112  0.00  0.00    +0.000 C 
ENDBRANCH   3   6
BRANCH   3   8
ATOM      8  C   UNL     1       0.314   0.784  -2.372  0.00  0.00    +0.000 C 
ATOM      9  C   UNL     1      -0.536   1.801  -2.572  0.00  0.00    +0.000 C 
ENDBRANCH   3   8
TORSDOF 3
