REMARK  Name = ligand_929309
REMARK  5 active torsions:
REMARK  status: ('A' for Active; 'I' for Inactive)
REMARK    1  A    between atoms: C_1  and  C_2
REMARK    2  A    between atoms: C_2  and  C_3
REMARK    3  A    between atoms: C_2  and  N_7
REMARK    4  A    between atoms: N_7  and  C_8
REMARK    5  A    between atoms: N_7  and  C_9
REMARK                            x       y       z     vdW  Elec       q    Type
REMARK                         _______ _______ _______ _____ _____    ______ ____
ROOT
ATOM      1  C   UNL     1       0.866   0.130  -0.026  0.00  0.00    +0.000 C 
ATOM      2  C   UNL     1       2.404   0.044   0.031  0.00  0.00    +0.000 C 
ENDROOT
BRANCH   2   3
ATOM      3  C   UNL     1       2.847  -0.782   1.257  0.00  0.00    +0.000 C 
ATOM      4  C   UNL     1       2.412  -2.261   1.385  0.00  0.00    +0.000 C 
ATOM      5  N   UNL     1       2.376  -2.085   2.855  0.00  0.00    +0.000 NA
ATOM      6  C   UNL     1       2.195  -0.629   2.654  0.00  0.00    +0.000 C 
ATOM      7  H   UNL     1       3.263  -2.324   3.302  0.00  0.00    +0.000 HD
ENDBRANCH   2   3
BRANCH   2   8
ATOM      8  N   UNL     1       2.971  -0.517  -1.233  0.00  0.00    +0.000 NA
ATOM      9  C   UNL     1       2.614   0.289  -2.410  0.00  0.00    +0.000 C 
ATOM     10  C   UNL     1       4.436  -0.624  -1.194  0.00  0.00    +0.000 C 
ENDBRANCH   2   8
TORSDOF 2
