REMARK  Name = ligand_929533
REMARK  1 active torsions:
REMARK  status: ('A' for Active; 'I' for Inactive)
REMARK    1  A    between atoms: C_2  and  C_3
REMARK                            x       y       z     vdW  Elec       q    Type
REMARK                         _______ _______ _______ _____ _____    ______ ____
ROOT
ATOM      1  C   UNL     1       3.050   0.837   0.824  0.00  0.00    +0.000 C 
ATOM      2  C   UNL     1       2.675   0.456   2.281  0.00  0.00    +0.000 C 
ATOM      3  N   UNL     1       3.562   0.938   3.345  0.00  0.00    +0.000 NA
ATOM      4  C   UNL     1       3.874   2.367   3.295  0.00  0.00    +0.000 C 
ATOM      5  C   UNL     1       2.760   3.296   2.790  0.00  0.00    +0.000 C 
ATOM      6  C   UNL     1       2.630   3.324   1.292  0.00  0.00    +0.000 C 
ATOM      7  C   UNL     1       2.807   2.288   0.457  0.00  0.00    +0.000 C 
ATOM      8  H   UNL     1       4.437   0.414   3.319  0.00  0.00    +0.000 HD
ENDROOT
BRANCH   1  10
ATOM      9  C   UNL     1       2.798  -0.881  -1.017  0.00  0.00    +0.000 C 
ATOM     10  C   UNL     1       2.255  -0.043  -0.123  0.00  0.00    +0.000 C 
ENDBRANCH   1  10
TORSDOF 1
