REMARK  Name = ligand_929629
REMARK  1 active torsions:
REMARK  status: ('A' for Active; 'I' for Inactive)
REMARK    1  A    between atoms: C_2  and  C_3
REMARK                            x       y       z     vdW  Elec       q    Type
REMARK                         _______ _______ _______ _____ _____    ______ ____
ROOT
ATOM      1  C   UNL     1       3.075  -1.189   0.381  0.00  0.00    +0.000 C 
ATOM      2  C   UNL     1       3.162  -2.226  -0.769  0.00  0.00    +0.000 C 
ATOM      3  N   UNL     1       3.980  -3.426  -0.506  0.00  0.00    +0.000 NA
ATOM      4  C   UNL     1       3.944  -3.810   0.909  0.00  0.00    +0.000 C 
ATOM      5  C   UNL     1       4.910  -2.978   1.729  0.00  0.00    +0.000 C 
ATOM      6  N   UNL     1       5.136  -1.696   1.697  0.00  0.00    +0.000 NA
ATOM      7  N   UNL     1       4.392  -0.877   0.925  0.00  0.00    +0.000 N 
ATOM      8  H   UNL     1       4.949  -3.198  -0.738  0.00  0.00    +0.000 HD
ATOM      9  H   UNL     1       4.957  -0.289   0.313  0.00  0.00    +0.000 HD
ENDROOT
BRANCH   1  11
ATOM     10  C   UNL     1       1.247   0.540   0.435  0.00  0.00    +0.000 C 
ATOM     11  C   UNL     1       2.393   0.074  -0.086  0.00  0.00    +0.000 C 
ENDBRANCH   1  11
TORSDOF 1
