REMARK  Name = ligand_929770
REMARK  2 active torsions:
REMARK  status: ('A' for Active; 'I' for Inactive)
REMARK    1  A    between atoms: C_1  and  C_2
REMARK    2  A    between atoms: N_5  and  C_6
REMARK                            x       y       z     vdW  Elec       q    Type
REMARK                         _______ _______ _______ _____ _____    ______ ____
ROOT
ATOM      1  C   UNL     1       0.837   0.067   0.032  0.00  0.00    +0.000 C 
ATOM      2  C   UNL     1       2.331   0.052  -0.058  0.00  0.00    +0.000 C 
ATOM      3  C   UNL     1       3.035  -0.139  -1.186  0.00  0.00    +0.000 C 
ATOM      4  C   UNL     1       4.566  -0.100  -1.157  0.00  0.00    +0.000 C 
ATOM      5  N   UNL     1       5.200  -0.582  -2.403  0.00  0.00    +0.000 N 
ATOM      6  C   UNL     1       6.641  -0.394  -2.424  0.00  0.00    +0.000 C 
ATOM      7  N   UNL     1       4.557  -0.602  -3.608  0.00  0.00    +0.000 NA
ATOM      8  C   UNL     1       3.263  -0.536  -3.544  0.00  0.00    +0.000 C 
ATOM      9  N   UNL     1       2.492  -0.355  -2.428  0.00  0.00    +0.000 N 
ATOM     10  H   UNL     1       1.487  -0.358  -2.515  0.00  0.00    +0.000 HD
ENDROOT
TORSDOF 0
