REMARK  Name = ligand_930138
REMARK  3 active torsions:
REMARK  status: ('A' for Active; 'I' for Inactive)
REMARK    1  A    between atoms: C_2  and  C_3
REMARK    2  A    between atoms: C_5  and  C_6
REMARK    3  A    between atoms: C_7  and  C_8
REMARK                            x       y       z     vdW  Elec       q    Type
REMARK                         _______ _______ _______ _____ _____    ______ ____
ROOT
ATOM      1  C   UNL     1       3.772  -0.038  -0.137  0.00  0.00    +0.000 C 
ATOM      2  N   UNL     1       4.474   0.658  -1.211  0.00  0.00    +0.000 NA
ATOM      3  C   UNL     1       4.525  -0.799  -1.208  0.00  0.00    +0.000 C 
ATOM      4  H   UNL     1       5.349   1.053  -0.866  0.00  0.00    +0.000 HD
ENDROOT
BRANCH   1   6
ATOM      5  C   UNL     1       1.140   0.044  -0.103  0.00  0.00    +0.000 C 
ATOM      6  C   UNL     1       2.340   0.009  -0.125  0.00  0.00    +0.000 C 
ENDBRANCH   1   6
BRANCH   3   7
ATOM      7  C   UNL     1       3.831  -1.494  -2.251  0.00  0.00    +0.000 C 
ATOM      8  C   UNL     1       3.248  -2.092  -3.115  0.00  0.00    +0.000 C 
BRANCH   8   9
ATOM      9  C   UNL     1       2.502  -2.873  -4.204  0.00  0.00    +0.000 C 
ATOM     10  N   UNL     1       1.945  -3.481  -5.019  0.00  0.00    +0.000 NA
ENDBRANCH   8   9
ENDBRANCH   3   7
TORSDOF 3
