REMARK  Name = ligand_931570
REMARK  2 active torsions:
REMARK  status: ('A' for Active; 'I' for Inactive)
REMARK    1  A    between atoms: C_2  and  C_3
REMARK    2  A    between atoms: C_3  and  C_4
REMARK                            x       y       z     vdW  Elec       q    Type
REMARK                         _______ _______ _______ _____ _____    ______ ____
ROOT
ATOM      1  C   UNL     1       4.374  -0.952  -1.005  0.00  0.00    +0.000 C 
ATOM      2  C   UNL     1       3.402  -2.046  -1.427  0.00  0.00    +0.000 C 
ATOM      3  C   UNL     1       3.247  -2.808  -0.146  0.00  0.00    +0.000 C 
ATOM      4  C   UNL     1       4.146  -3.885   0.365  0.00  0.00    +0.000 C 
ATOM      5  N   UNL     1       4.471  -2.535   0.713  0.00  0.00    +0.000 NA
ATOM      6  C   UNL     1       5.372  -1.792  -0.202  0.00  0.00    +0.000 C 
ENDROOT
BRANCH   1   7
ATOM      7  C   UNL     1       3.790   0.089  -0.030  0.00  0.00    +0.000 C 
BRANCH   7   9
ATOM      8  C   UNL     1       1.553   1.448  -1.090  0.00  0.00    +0.000 C 
ATOM      9  C   UNL     1       2.586   0.820  -0.601  0.00  0.00    +0.000 C 
ENDBRANCH   7   9
ENDBRANCH   1   7
TORSDOF 2
