REMARK  Name = ligand_931986
REMARK  3 active torsions:
REMARK  status: ('A' for Active; 'I' for Inactive)
REMARK    1  A    between atoms: C_1  and  C_2
REMARK    2  A    between atoms: C_2  and  C_4
REMARK    3  A    between atoms: C_4  and  C_8
REMARK                            x       y       z     vdW  Elec       q    Type
REMARK                         _______ _______ _______ _____ _____    ______ ____
ROOT
ATOM      1  C   UNL     1       3.226   0.942  -0.887  0.00  0.00    +0.000 C 
ATOM      2  C   UNL     1       4.708   1.242  -0.523  0.00  0.00    +0.000 C 
ATOM      3  C   UNL     1       4.360   2.708  -0.805  0.00  0.00    +0.000 C 
ATOM      4  N   UNL     1       2.940   2.368  -0.592  0.00  0.00    +0.000 NA
ATOM      5  H   UNL     1       2.297   2.809  -1.245  0.00  0.00    +0.000 HD
ENDROOT
BRANCH   1   7
ATOM      6  C   UNL     1       0.964   0.245   0.147  0.00  0.00    +0.000 C 
ATOM      7  C   UNL     1       2.449   0.031   0.021  0.00  0.00    +0.000 C 
ATOM      8  C   UNL     1       3.052  -1.014   0.617  0.00  0.00    +0.000 C 
ENDBRANCH   1   7
BRANCH   1   9
ATOM      9  C   UNL     1       2.964   0.628  -2.284  0.00  0.00    +0.000 C 
ATOM     10  C   UNL     1       2.708   0.329  -3.418  0.00  0.00    +0.000 C 
ENDBRANCH   1   9
TORSDOF 2
