REMARK  Name = ligand_931948
REMARK  2 active torsions:
REMARK  status: ('A' for Active; 'I' for Inactive)
REMARK    1  A    between atoms: C_1  and  C_2
REMARK    2  A    between atoms: C_2  and  C_3
REMARK                            x       y       z     vdW  Elec       q    Type
REMARK                         _______ _______ _______ _____ _____    ______ ____
ROOT
ATOM      1  C   UNL     1       1.112  -0.144   0.068  0.00  0.00    +0.000 C 
ATOM      2  C   UNL     1       2.617  -0.153   0.058  0.00  0.00    +0.000 C 
ATOM      3  C   UNL     1       3.295   0.780  -0.905  0.00  0.00    +0.000 C 
ATOM      4  C   UNL     1       3.323  -0.915   0.918  0.00  0.00    +0.000 C 
ATOM      5  C   UNL     1       4.838  -0.941   1.029  0.00  0.00    +0.000 C 
ATOM      6  C   UNL     1       5.120  -1.572   2.407  0.00  0.00    +0.000 C 
ATOM      7  C   UNL     1       3.743  -1.949   2.896  0.00  0.00    +0.000 C 
ATOM      8  N   UNL     1       3.490  -2.376   4.083  0.00  0.00    +0.000 NA
ATOM      9  N   UNL     1       2.828  -1.703   1.921  0.00  0.00    +0.000 N 
ATOM     10  H   UNL     1       4.355  -2.419   4.632  0.00  0.00    +0.000 HD
ATOM     11  H   UNL     1       1.847  -1.711   2.151  0.00  0.00    +0.000 HD
ENDROOT
TORSDOF 0
