REMARK  Name = ligand_932077
REMARK  4 active torsions:
REMARK  status: ('A' for Active; 'I' for Inactive)
REMARK    1  A    between atoms: C_1  and  C_2
REMARK    2  A    between atoms: C_2  and  C_3
REMARK    3  A    between atoms: C_2  and  C_4
REMARK    4  A    between atoms: C_8  and  C_9
REMARK                            x       y       z     vdW  Elec       q    Type
REMARK                         _______ _______ _______ _____ _____    ______ ____
ROOT
ATOM      1  C   UNL     1       2.951  -0.977  -0.965  0.00  0.00    +0.000 C 
ATOM      2  C   UNL     1       2.290  -2.353  -0.836  0.00  0.00    +0.000 C 
ATOM      3  C   UNL     1       3.345  -3.352  -1.291  0.00  0.00    +0.000 C 
ATOM      4  N   UNL     1       4.493  -2.563  -1.753  0.00  0.00    +0.000 NA
ATOM      5  C   UNL     1       4.453  -1.304  -0.983  0.00  0.00    +0.000 C 
ATOM      6  C   UNL     1       5.116  -1.504   0.378  0.00  0.00    +0.000 C 
ATOM      7  H   UNL     1       4.346  -2.337  -2.737  0.00  0.00    +0.000 HD
ENDROOT
BRANCH   1   9
ATOM      8  C   UNL     1       3.164   1.409  -0.106  0.00  0.00    +0.000 C 
ATOM      9  C   UNL     1       2.465   0.057   0.072  0.00  0.00    +0.000 C 
ATOM     10  C   UNL     1       0.947   0.266  -0.024  0.00  0.00    +0.000 C 
ENDBRANCH   1   9
TORSDOF 1
