REMARK  Name = ligand_93201
REMARK  4 active torsions:
REMARK  status: ('A' for Active; 'I' for Inactive)
REMARK    1  A    between atoms: C_1  and  C_2
REMARK    2  A    between atoms: C_2  and  C_3
REMARK    3  A    between atoms: C_3  and  C_4
REMARK    4  A    between atoms: C_7  and  C_8
REMARK                            x       y       z     vdW  Elec       q    Type
REMARK                         _______ _______ _______ _____ _____    ______ ____
ROOT
ATOM      1  C   UNL     1       3.064  -0.828   1.191  0.00  0.00    +0.000 C 
ATOM      2  C   UNL     1       2.308  -0.465   2.472  0.00  0.00    +0.000 C 
ATOM      3  C   UNL     1       3.096  -2.358   0.900  0.00  0.00    +0.000 C 
ATOM      4  C   UNL     1       4.589  -2.244   0.556  0.00  0.00    +0.000 C 
ATOM      5  C   UNL     1       4.640  -0.883   1.294  0.00  0.00    +0.000 C 
ENDROOT
BRANCH   1   7
ATOM      6  C   UNL     1       1.129  -0.134  -0.336  0.00  0.00    +0.000 C 
ATOM      7  C   UNL     1       2.609   0.027  -0.016  0.00  0.00    +0.000 C 
ENDBRANCH   1   7
BRANCH   5   8
ATOM      8  C   UNL     1       5.244  -0.951   2.657  0.00  0.00    +0.000 C 
ATOM      9  C   UNL     1       5.890   0.110   3.160  0.00  0.00    +0.000 C 
ENDBRANCH   5   8
TORSDOF 2
