REMARK  Name = ligand_932308
REMARK  2 active torsions:
REMARK  status: ('A' for Active; 'I' for Inactive)
REMARK    1  A    between atoms: C_1  and  C_2
REMARK    2  A    between atoms: C_3  and  C_4
REMARK                            x       y       z     vdW  Elec       q    Type
REMARK                         _______ _______ _______ _____ _____    ______ ____
ROOT
ATOM      1  C   UNL     1       4.733  -1.024  -0.319  0.00  0.00    +0.000 C 
ATOM      2  C   UNL     1       5.444  -0.432   0.658  0.00  0.00    +0.000 C 
ATOM      3  C   UNL     1       6.835  -0.792   0.344  0.00  0.00    +0.000 C 
ATOM      4  N   UNL     1       7.882  -0.320   0.918  0.00  0.00    +0.000 NA
ATOM      5  N   UNL     1       6.886  -1.681  -0.679  0.00  0.00    +0.000 N 
ATOM      6  C   UNL     1       5.599  -1.762  -1.324  0.00  0.00    +0.000 C 
ATOM      7  H   UNL     1       7.619   0.343   1.652  0.00  0.00    +0.000 HD
ATOM      8  H   UNL     1       7.745  -1.746  -1.205  0.00  0.00    +0.000 HD
ENDROOT
BRANCH   1  11
ATOM      9  C   UNL     1       1.065  -1.558  -1.375  0.00  0.00    +0.000 C 
ATOM     10  C   UNL     1       2.559  -1.570  -1.360  0.00  0.00    +0.000 C 
ATOM     11  C   UNL     1       3.290  -0.993  -0.395  0.00  0.00    +0.000 C 
ENDBRANCH   1  11
TORSDOF 1
