REMARK  Name = ligand_93230
REMARK  4 active torsions:
REMARK  status: ('A' for Active; 'I' for Inactive)
REMARK    1  A    between atoms: C_1  and  C_2
REMARK    2  A    between atoms: C_2  and  C_3
REMARK    3  A    between atoms: C_7  and  C_8
REMARK    4  A    between atoms: C_8  and  C_9
REMARK                            x       y       z     vdW  Elec       q    Type
REMARK                         _______ _______ _______ _____ _____    ______ ____
ROOT
ATOM      1  C   UNL     1       3.030   0.434  -1.165  0.00  0.00    +0.000 C 
ATOM      2  C   UNL     1       4.514   0.171  -1.511  0.00  0.00    +0.000 C 
ATOM      3  C   UNL     1       5.167   1.488  -1.265  0.00  0.00    +0.000 C 
ATOM      4  C   UNL     1       4.275   2.476  -1.162  0.00  0.00    +0.000 C 
ATOM      5  C   UNL     1       2.872   1.977  -1.349  0.00  0.00    +0.000 C 
ENDROOT
BRANCH   1   7
ATOM      6  C   UNL     1       2.737  -1.625   0.342  0.00  0.00    +0.000 C 
ATOM      7  C   UNL     1       2.667  -0.103   0.237  0.00  0.00    +0.000 C 
ENDBRANCH   1   7
BRANCH   5   8
ATOM      8  C   UNL     1       1.837   2.671  -0.455  0.00  0.00    +0.000 C 
ATOM      9  C   UNL     1       1.742   4.173  -0.718  0.00  0.00    +0.000 C 
ENDBRANCH   5   8
TORSDOF 2
