REMARK  Name = ligand_932612
REMARK  4 active torsions:
REMARK  status: ('A' for Active; 'I' for Inactive)
REMARK    1  A    between atoms: C_1  and  C_2
REMARK    2  A    between atoms: C_3  and  C_4
REMARK    3  A    between atoms: C_7  and  C_8
REMARK    4  A    between atoms: C_8  and  N_9
REMARK                            x       y       z     vdW  Elec       q    Type
REMARK                         _______ _______ _______ _____ _____    ______ ____
ROOT
ATOM      1  C   UNL     1       5.336   0.096   0.003  0.00  0.00    +0.000 C 
ATOM      2  C   UNL     1       6.051  -0.965   0.866  0.00  0.00    +0.000 C 
ATOM      3  N   UNL     1       7.021   0.068   1.304  0.00  0.00    +0.000 NA
ATOM      4  C   UNL     1       6.026   1.126   0.934  0.00  0.00    +0.000 C 
ATOM      5  H   UNL     1       7.868   0.104   0.730  0.00  0.00    +0.000 HD
ENDROOT
BRANCH   1   8
ATOM      6  C   UNL     1       1.067   0.073   0.013  0.00  0.00    +0.000 C 
ATOM      7  C   UNL     1       2.587   0.073   0.013  0.00  0.00    +0.000 C 
ATOM      8  C   UNL     1       3.891   0.073   0.013  0.00  0.00    +0.000 C 
ENDBRANCH   1   8
BRANCH   4   9
ATOM      9  C   UNL     1       5.230   1.656   2.137  0.00  0.00    +0.000 C 
BRANCH   9  10
ATOM     10  N   UNL     1       6.117   2.291   3.117  0.00  0.00    +0.000 NA
ATOM     11  H   UNL     1       6.746   1.563   3.462  0.00  0.00    +0.000 HD
ATOM     12  H   UNL     1       5.563   2.595   3.917  0.00  0.00    +0.000 HD
ENDBRANCH   9  10
ENDBRANCH   4   9
TORSDOF 3
