REMARK  Name = ligand_932705
REMARK  4 active torsions:
REMARK  status: ('A' for Active; 'I' for Inactive)
REMARK    1  A    between atoms: C_1  and  C_2
REMARK    2  A    between atoms: C_3  and  C_4
REMARK    3  A    between atoms: C_4  and  C_5
REMARK    4  A    between atoms: C_5  and  N_6
REMARK                            x       y       z     vdW  Elec       q    Type
REMARK                         _______ _______ _______ _____ _____    ______ ____
ROOT
ATOM      1  C   UNL     1       5.246  -0.071  -0.152  0.00  0.00    +0.000 C 
ATOM      2  C   UNL     1       5.935  -1.151   0.761  0.00  0.00    +0.000 C 
ATOM      3  C   UNL     1       6.962  -0.083   1.187  0.00  0.00    +0.000 C 
ATOM      4  C   UNL     1       5.936   0.988   0.765  0.00  0.00    +0.000 C 
ENDROOT
BRANCH   1   7
ATOM      5  C   UNL     1       0.972  -0.078  -0.055  0.00  0.00    +0.000 C 
ATOM      6  C   UNL     1       2.492  -0.078  -0.055  0.00  0.00    +0.000 C 
ATOM      7  C   UNL     1       3.796  -0.078  -0.055  0.00  0.00    +0.000 C 
ENDBRANCH   1   7
BRANCH   1   8
ATOM      8  C   UNL     1       5.643  -0.090  -1.643  0.00  0.00    +0.000 C 
BRANCH   8   9
ATOM      9  N   UNL     1       5.155   1.069  -2.408  0.00  0.00    +0.000 NA
ATOM     10  H   UNL     1       4.132   1.039  -2.449  0.00  0.00    +0.000 HD
ATOM     11  H   UNL     1       5.464   0.977  -3.377  0.00  0.00    +0.000 HD
ENDBRANCH   8   9
ENDBRANCH   1   8
TORSDOF 3
