REMARK  Name = ligand_933078
REMARK  5 active torsions:
REMARK  status: ('A' for Active; 'I' for Inactive)
REMARK    1  A    between atoms: C_1  and  C_2
REMARK    2  A    between atoms: C_2  and  C_3
REMARK    3  A    between atoms: C_3  and  C_4
REMARK    4  A    between atoms: C_6  and  C_7
REMARK    5  A    between atoms: C_6  and  C_8
REMARK                            x       y       z     vdW  Elec       q    Type
REMARK                         _______ _______ _______ _____ _____    ______ ____
ROOT
ATOM      1  C   UNL     1       4.559   0.935  -0.778  0.00  0.00    +0.000 C 
ATOM      2  N   UNL     1       5.252   0.956  -2.061  0.00  0.00    +0.000 NA
ATOM      3  C   UNL     1       5.330  -0.288  -1.287  0.00  0.00    +0.000 C 
ATOM      4  C   UNL     1       6.639  -0.617  -0.613  0.00  0.00    +0.000 C 
ATOM      5  H   UNL     1       6.124   1.479  -1.997  0.00  0.00    +0.000 HD
ENDROOT
BRANCH   3   6
ATOM      6  C   UNL     1       4.585  -1.434  -1.843  0.00  0.00    +0.000 C 
ATOM      7  C   UNL     1       4.778  -1.999  -3.048  0.00  0.00    +0.000 C 
ENDBRANCH   3   6
BRANCH   1   8
ATOM      8  C   UNL     1       3.060   1.048  -0.788  0.00  0.00    +0.000 C 
BRANCH   8  10
ATOM      9  C   UNL     1       2.792  -0.292   1.349  0.00  0.00    +0.000 C 
ATOM     10  C   UNL     1       2.475   1.007   0.626  0.00  0.00    +0.000 C 
ENDBRANCH   8  10
ENDBRANCH   1   8
TORSDOF 3
