REMARK  Name = ligand_933310
REMARK  2 active torsions:
REMARK  status: ('A' for Active; 'I' for Inactive)
REMARK    1  A    between atoms: C_1  and  C_2
REMARK    2  A    between atoms: C_2  and  C_4
REMARK                            x       y       z     vdW  Elec       q    Type
REMARK                         _______ _______ _______ _____ _____    ______ ____
ROOT
ATOM      1  C   UNL     1       3.775   0.909  -0.304  0.00  0.00    +0.000 C 
ATOM      2  N   UNL     1       3.846   2.109   0.227  0.00  0.00    +0.000 NA
ATOM      3  C   UNL     1       4.172   3.013  -0.917  0.00  0.00    +0.000 C 
ATOM      4  C   UNL     1       5.163   4.083  -0.484  0.00  0.00    +0.000 C 
ATOM      5  C   UNL     1       4.697   2.091  -2.025  0.00  0.00    +0.000 C 
ATOM      6  N   UNL     1       4.095   0.838  -1.637  0.00  0.00    +0.000 N 
ATOM      7  H   UNL     1       4.524  -0.014  -1.975  0.00  0.00    +0.000 HD
ENDROOT
BRANCH   1   9
ATOM      8  C   UNL     1       2.194   0.891   2.335  0.00  0.00    +0.000 C 
ATOM      9  C   UNL     1       2.761  -0.305   1.642  0.00  0.00    +0.000 C 
ATOM     10  C   UNL     1       3.446  -0.304   0.486  0.00  0.00    +0.000 C 
ENDBRANCH   1   9
TORSDOF 1
