REMARK  Name = ligand_933610
REMARK  2 active torsions:
REMARK  status: ('A' for Active; 'I' for Inactive)
REMARK    1  A    between atoms: C_1  and  C_2
REMARK    2  A    between atoms: C_3  and  C_4
REMARK                            x       y       z     vdW  Elec       q    Type
REMARK                         _______ _______ _______ _____ _____    ______ ____
ROOT
ATOM      1  C   UNL     1       5.221  -0.042   0.078  0.00  0.00    +0.000 C 
ATOM      2  N   UNL     1       5.787   1.114   0.106  0.00  0.00    +0.000 NA
ATOM      3  N   UNL     1       7.204   1.166   0.108  0.00  0.00    +0.000 NA
ATOM      4  C   UNL     1       7.906   0.078   0.075  0.00  0.00    +0.000 C 
ATOM      5  C   UNL     1       7.367  -1.311   0.030  0.00  0.00    +0.000 C 
ATOM      6  C   UNL     1       5.864  -1.377   0.047  0.00  0.00    +0.000 C 
ENDROOT
BRANCH   1   9
ATOM      7  C   UNL     1       0.938  -0.025   0.075  0.00  0.00    +0.000 C 
ATOM      8  C   UNL     1       2.458  -0.025   0.075  0.00  0.00    +0.000 C 
ATOM      9  C   UNL     1       3.762  -0.025   0.075  0.00  0.00    +0.000 C 
ENDBRANCH   1   9
TORSDOF 1
