REMARK  Name = ligand_933707
REMARK  4 active torsions:
REMARK  status: ('A' for Active; 'I' for Inactive)
REMARK    1  A    between atoms: C_1  and  C_2
REMARK    2  A    between atoms: C_2  and  C_3
REMARK    3  A    between atoms: C_3  and  C_8
REMARK    4  A    between atoms: C_4  and  C_5
REMARK                            x       y       z     vdW  Elec       q    Type
REMARK                         _______ _______ _______ _____ _____    ______ ____
ROOT
ATOM      1  C   UNL     1       1.617   1.297  -0.640  0.00  0.00    +0.000 C 
ATOM      2  C   UNL     1       1.652   2.520  -0.079  0.00  0.00    +0.000 C 
ENDROOT
BRANCH   2   3
ATOM      3  C   UNL     1       1.426   1.121  -2.091  0.00  0.00    +0.000 C 
ATOM      4  C   UNL     1       0.460   0.164  -2.729  0.00  0.00    +0.000 C 
ATOM      5  C   UNL     1       0.094   1.618  -2.634  0.00  0.00    +0.000 C 
ENDBRANCH   2   3
BRANCH   1   7
ATOM      6  C   UNL     1       0.672  -0.449   0.917  0.00  0.00    +0.000 C 
ATOM      7  C   UNL     1       1.911   0.081   0.209  0.00  0.00    +0.000 C 
ENDBRANCH   1   7
BRANCH   1   8
ATOM      8  C   UNL     1       0.162   2.516  -3.747  0.00  0.00    +0.000 C 
ATOM      9  N   UNL     1       0.244   3.283  -4.612  0.00  0.00    +0.000 NA
ENDBRANCH   1   8
TORSDOF 3
