REMARK  Name = ligand_933814
REMARK  2 active torsions:
REMARK  status: ('A' for Active; 'I' for Inactive)
REMARK    1  A    between atoms: C_2  and  C_3
REMARK    2  A    between atoms: C_4  and  C_5
REMARK                            x       y       z     vdW  Elec       q    Type
REMARK                         _______ _______ _______ _____ _____    ______ ____
ROOT
ATOM      1  C   UNL     1       5.837  -0.405  -1.035  0.00  0.00    +0.000 A 
ATOM      2  C   UNL     1       6.732  -0.875  -0.090  0.00  0.00    +0.000 A 
ATOM      3  C   UNL     1       8.043  -0.667  -0.582  0.00  0.00    +0.000 A 
ATOM      4  C   UNL     1       7.924  -0.069  -1.814  0.00  0.00    +0.000 A 
ATOM      5  N   UNL     1       6.588   0.089  -2.080  0.00  0.00    +0.000 N 
ATOM      6  H   UNL     1       6.216   0.502  -2.925  0.00  0.00    +0.000 HD
ENDROOT
BRANCH   1   8
ATOM      7  C   UNL     1       3.635  -0.804  -0.154  0.00  0.00    +0.000 C 
ATOM      8  C   UNL     1       4.422  -0.347  -1.138  0.00  0.00    +0.000 C 
BRANCH   7  10
ATOM      9  C   UNL     1       1.015  -0.813  -0.300  0.00  0.00    +0.000 C 
ATOM     10  C   UNL     1       2.216  -0.790  -0.252  0.00  0.00    +0.000 C 
ENDBRANCH   7  10
ENDBRANCH   1   8
TORSDOF 2
