REMARK  Name = ligand_934404
REMARK  4 active torsions:
REMARK  status: ('A' for Active; 'I' for Inactive)
REMARK    1  A    between atoms: C_1  and  C_2
REMARK    2  A    between atoms: C_2  and  C_3
REMARK    3  A    between atoms: C_2  and  C_5
REMARK    4  A    between atoms: C_7  and  C_8
REMARK                            x       y       z     vdW  Elec       q    Type
REMARK                         _______ _______ _______ _____ _____    ______ ____
ROOT
ATOM      1  C   UNL     1       2.917  -0.994  -0.930  0.00  0.00    +0.000 C 
ATOM      2  N   UNL     1       4.353  -1.246  -1.099  0.00  0.00    +0.000 NA
ATOM      3  C   UNL     1       3.648  -0.585  -2.202  0.00  0.00    +0.000 C 
ATOM      4  H   UNL     1       4.525  -2.229  -1.314  0.00  0.00    +0.000 HD
ENDROOT
BRANCH   1   6
ATOM      5  C   UNL     1       0.905   0.098   0.050  0.00  0.00    +0.000 C 
ATOM      6  C   UNL     1       2.439   0.012   0.107  0.00  0.00    +0.000 C 
BRANCH   6   7
ATOM      7  C   UNL     1       2.986  -0.270   1.495  0.00  0.00    +0.000 C 
ATOM      8  C   UNL     1       2.305  -0.390   2.643  0.00  0.00    +0.000 C 
ENDBRANCH   6   7
ENDBRANCH   1   6
BRANCH   3   9
ATOM      9  C   UNL     1       3.943   0.794  -2.497  0.00  0.00    +0.000 C 
ATOM     10  N   UNL     1       4.165   1.903  -2.754  0.00  0.00    +0.000 NA
ENDBRANCH   3   9
TORSDOF 3
