REMARK  Name = ligand_934553
REMARK  2 active torsions:
REMARK  status: ('A' for Active; 'I' for Inactive)
REMARK    1  A    between atoms: C_2  and  C_3
REMARK    2  A    between atoms: C_2  and  C_5
REMARK                            x       y       z     vdW  Elec       q    Type
REMARK                         _______ _______ _______ _____ _____    ______ ____
ROOT
ATOM      1  C   UNL     1       3.190  -0.128  -1.306  0.00  0.00    +0.000 A 
ATOM      2  N   UNL     1       4.526  -0.215  -1.434  0.00  0.00    +0.000 NA
ATOM      3  N   UNL     1       4.675  -0.347  -2.759  0.00  0.00    +0.000 N 
ATOM      4  C   UNL     1       3.478  -0.335  -3.395  0.00  0.00    +0.000 A 
ATOM      5  N   UNL     1       2.518  -0.200  -2.513  0.00  0.00    +0.000 NA
ATOM      6  H   UNL     1       5.606  -0.439  -3.147  0.00  0.00    +0.000 HD
ENDROOT
BRANCH   1   8
ATOM      7  C   UNL     1       1.098   0.085  -0.039  0.00  0.00    +0.000 C 
ATOM      8  C   UNL     1       2.441   0.024  -0.084  0.00  0.00    +0.000 C 
BRANCH   8   9
ATOM      9  C   UNL     1       3.157   0.115   1.152  0.00  0.00    +0.000 C 
ATOM     10  C   UNL     1       3.754   0.194   2.192  0.00  0.00    +0.000 C 
ENDBRANCH   8   9
ENDBRANCH   1   8
TORSDOF 2
