REMARK  Name = ligand_934576
REMARK  2 active torsions:
REMARK  status: ('A' for Active; 'I' for Inactive)
REMARK    1  A    between atoms: C_2  and  C_3
REMARK    2  A    between atoms: C_2  and  C_5
REMARK                            x       y       z     vdW  Elec       q    Type
REMARK                         _______ _______ _______ _____ _____    ______ ____
ROOT
ATOM      1  C   UNL     1       3.095   1.156  -0.089  0.00  0.00    +0.000 C 
ATOM      2  N   UNL     1       2.809   2.260   0.535  0.00  0.00    +0.000 NA
ATOM      3  N   UNL     1       3.750   3.261   0.149  0.00  0.00    +0.000 NA
ATOM      4  C   UNL     1       4.572   2.732  -0.694  0.00  0.00    +0.000 C 
ATOM      5  C   UNL     1       4.283   1.307  -0.986  0.00  0.00    +0.000 C 
ENDROOT
BRANCH   1   7
ATOM      6  C   UNL     1       1.307  -0.205   0.827  0.00  0.00    +0.000 C 
ATOM      7  C   UNL     1       2.377  -0.141   0.021  0.00  0.00    +0.000 C 
BRANCH   7   8
ATOM      8  C   UNL     1       2.809  -1.288  -0.703  0.00  0.00    +0.000 C 
ATOM      9  C   UNL     1       3.174  -2.256  -1.312  0.00  0.00    +0.000 C 
ENDBRANCH   7   8
ENDBRANCH   1   7
TORSDOF 2
