REMARK  Name = ligand_934705
REMARK  4 active torsions:
REMARK  status: ('A' for Active; 'I' for Inactive)
REMARK    1  A    between atoms: C_1  and  C_2
REMARK    2  A    between atoms: C_2  and  C_3
REMARK    3  A    between atoms: C_2  and  C_4
REMARK    4  A    between atoms: C_2  and  C_6
REMARK                            x       y       z     vdW  Elec       q    Type
REMARK                         _______ _______ _______ _____ _____    ______ ____
ROOT
ATOM      1  C   UNL     1       1.059   0.054  -0.033  0.00  0.00    +0.000 C 
ATOM      2  C   UNL     1       2.599  -0.010   0.054  0.00  0.00    +0.000 C 
ATOM      3  C   UNL     1       3.163   1.366  -0.352  0.00  0.00    +0.000 C 
ENDROOT
BRANCH   2   4
ATOM      4  C   UNL     1       3.078  -1.057  -0.984  0.00  0.00    +0.000 C 
ATOM      5  C   UNL     1       2.640  -2.536  -0.835  0.00  0.00    +0.000 C 
ATOM      6  C   UNL     1       4.060  -2.865  -1.316  0.00  0.00    +0.000 C 
ATOM      7  N   UNL     1       4.486  -1.532  -0.836  0.00  0.00    +0.000 NA
ATOM      8  H   UNL     1       5.164  -1.060  -1.431  0.00  0.00    +0.000 HD
ENDBRANCH   2   4
BRANCH   2   9
ATOM      9  C   UNL     1       3.096  -0.351   1.458  0.00  0.00    +0.000 C 
ATOM     10  C   UNL     1       2.351  -0.592   2.545  0.00  0.00    +0.000 C 
ENDBRANCH   2   9
TORSDOF 2
