REMARK  Name = ligand_935351
REMARK  4 active torsions:
REMARK  status: ('A' for Active; 'I' for Inactive)
REMARK    1  A    between atoms: C_1  and  C_2
REMARK    2  A    between atoms: C_3  and  C_4
REMARK    3  A    between atoms: C_5  and  C_6
REMARK    4  A    between atoms: C_7  and  C_8
REMARK                            x       y       z     vdW  Elec       q    Type
REMARK                         _______ _______ _______ _____ _____    ______ ____
ROOT
ATOM      1  C   UNL     1       4.699  -0.789  -0.738  0.00  0.00    +0.000 C 
ATOM      2  C   UNL     1       6.003  -0.789  -0.738  0.00  0.00    +0.000 C 
ENDROOT
BRANCH   1   5
ATOM      3  C   UNL     1       0.998   0.061   0.070  0.00  0.00    +0.000 C 
ATOM      4  C   UNL     1       2.490   0.042   0.051  0.00  0.00    +0.000 C 
ATOM      5  C   UNL     1       3.179  -0.789  -0.738  0.00  0.00    +0.000 C 
ENDBRANCH   1   5
BRANCH   2   6
ATOM      6  C   UNL     1       7.552  -0.789  -0.738  0.00  0.00    +0.000 C 
ATOM      7  C   UNL     1       8.754  -0.788  -0.737  0.00  0.00    +0.000 C 
BRANCH   7   8
ATOM      8  C   UNL     1      10.297  -0.785  -0.734  0.00  0.00    +0.000 C 
ATOM      9  N   UNL     1      11.457  -0.783  -0.733  0.00  0.00    +0.000 NA
ENDBRANCH   7   8
ENDBRANCH   2   6
TORSDOF 3
