REMARK  Name = ligand_935778
REMARK  7 active torsions:
REMARK  status: ('A' for Active; 'I' for Inactive)
REMARK    1  A    between atoms: C_1  and  C_2
REMARK    2  A    between atoms: C_3  and  C_4
REMARK    3  A    between atoms: C_4  and  C_5
REMARK    4  A    between atoms: C_4  and  C_6
REMARK    5  A    between atoms: C_4  and  C_7
REMARK    6  A    between atoms: C_7  and  C_8
REMARK    7  A    between atoms: C_7  and  N_9
REMARK                            x       y       z     vdW  Elec       q    Type
REMARK                         _______ _______ _______ _____ _____    ______ ____
ROOT
ATOM      1  C   UNL     1       5.412  -0.072   0.011  0.00  0.00    +0.000 C 
ATOM      2  C   UNL     1       5.891  -1.122  -1.007  0.00  0.00    +0.000 C 
ATOM      3  C   UNL     1       5.918   1.320  -0.446  0.00  0.00    +0.000 C 
ENDROOT
BRANCH   1   6
ATOM      4  C   UNL     1       1.068  -0.072   0.011  0.00  0.00    +0.000 C 
ATOM      5  C   UNL     1       2.588  -0.072   0.011  0.00  0.00    +0.000 C 
ATOM      6  C   UNL     1       3.892  -0.072   0.011  0.00  0.00    +0.000 C 
ENDBRANCH   1   6
BRANCH   1   7
ATOM      7  C   UNL     1       6.031  -0.338   1.431  0.00  0.00    +0.000 C 
ATOM      8  C   UNL     1       5.385  -0.178   2.853  0.00  0.00    +0.000 C 
BRANCH   7   9
ATOM      9  N   UNL     1       3.964  -0.096   3.065  0.00  0.00    +0.000 NA
ATOM     10  H   UNL     1       3.493   0.376   2.288  0.00  0.00    +0.000 HD
ATOM     11  H   UNL     1       3.542  -1.026   3.131  0.00  0.00    +0.000 HD
ENDBRANCH   7   9
ENDBRANCH   1   7
TORSDOF 3
