REMARK  Name = ligand_935886
REMARK  7 active torsions:
REMARK  status: ('A' for Active; 'I' for Inactive)
REMARK    1  A    between atoms: C_1  and  C_2
REMARK    2  A    between atoms: C_2  and  C_3
REMARK    3  A    between atoms: C_4  and  C_5
REMARK    4  A    between atoms: C_5  and  C_6
REMARK    5  A    between atoms: C_6  and  C_7
REMARK    6  A    between atoms: C_6  and  C_8
REMARK    7  A    between atoms: C_8  and  N_9
REMARK                            x       y       z     vdW  Elec       q    Type
REMARK                         _______ _______ _______ _____ _____    ______ ____
ROOT
ATOM      1  C   UNL     1       6.483   2.650   1.673  0.00  0.00    +0.000 C 
ATOM      2  C   UNL     1       6.996   2.747   0.229  0.00  0.00    +0.000 C 
ENDROOT
BRANCH   1   3
ATOM      3  C   UNL     1       4.941   2.589   1.727  0.00  0.00    +0.000 C 
BRANCH   3   5
ATOM      4  C   UNL     1       3.502   1.509  -0.029  0.00  0.00    +0.000 C 
ATOM      5  C   UNL     1       4.362   1.407   1.001  0.00  0.00    +0.000 C 
BRANCH   4   7
ATOM      6  C   UNL     1       1.470   0.214  -0.709  0.00  0.00    +0.000 C 
ATOM      7  C   UNL     1       2.984   0.318  -0.776  0.00  0.00    +0.000 C 
ENDBRANCH   4   7
ENDBRANCH   3   5
ENDBRANCH   1   3
BRANCH   1   8
ATOM      8  C   UNL     1       6.972   3.844   2.519  0.00  0.00    +0.000 C 
BRANCH   8   9
ATOM      9  N   UNL     1       8.426   3.961   2.517  0.00  0.00    +0.000 NA
ATOM     10  H   UNL     1       8.842   3.112   2.896  0.00  0.00    +0.000 HD
ATOM     11  H   UNL     1       8.711   4.725   3.127  0.00  0.00    +0.000 HD
ENDBRANCH   8   9
ENDBRANCH   1   8
TORSDOF 5
