REMARK  Name = ligand_935969
REMARK  7 active torsions:
REMARK  status: ('A' for Active; 'I' for Inactive)
REMARK    1  A    between atoms: C_1  and  C_2
REMARK    2  A    between atoms: C_2  and  C_3
REMARK    3  A    between atoms: C_3  and  C_4
REMARK    4  A    between atoms: C_5  and  C_6
REMARK    5  A    between atoms: C_5  and  C_7
REMARK    6  A    between atoms: C_7  and  C_8
REMARK    7  A    between atoms: C_7  and  N_9
REMARK                            x       y       z     vdW  Elec       q    Type
REMARK                         _______ _______ _______ _____ _____    ______ ____
ROOT
ATOM      1  C   UNL     1       2.836  -0.064  -1.470  0.00  0.00    +0.000 C 
ATOM      2  C   UNL     1       1.705  -0.165  -2.468  0.00  0.00    +0.000 C 
ATOM      3  C   UNL     1       4.124   0.113  -1.859  0.00  0.00    +0.000 C 
ATOM      4  C   UNL     1       5.297   0.106  -0.908  0.00  0.00    +0.000 C 
ENDROOT
BRANCH   1   6
ATOM      5  C   UNL     1       2.424  -1.520   0.579  0.00  0.00    +0.000 C 
ATOM      6  C   UNL     1       2.389  -0.125  -0.018  0.00  0.00    +0.000 C 
ENDBRANCH   1   6
BRANCH   3   7
ATOM      7  C   UNL     1       4.508   0.434  -3.298  0.00  0.00    +0.000 C 
ATOM      8  C   UNL     1       4.739  -0.772  -4.214  0.00  0.00    +0.000 C 
BRANCH   7   9
ATOM      9  N   UNL     1       4.957  -0.345  -5.601  0.00  0.00    +0.000 NA
ATOM     10  H   UNL     1       4.181   0.246  -5.899  0.00  0.00    +0.000 HD
ATOM     11  H   UNL     1       5.787   0.251  -5.645  0.00  0.00    +0.000 HD
ENDBRANCH   7   9
ENDBRANCH   3   7
TORSDOF 3
