REMARK  Name = ligand_936675
REMARK  6 active torsions:
REMARK  status: ('A' for Active; 'I' for Inactive)
REMARK    1  A    between atoms: C_1  and  C_2
REMARK    2  A    between atoms: C_2  and  C_3
REMARK    3  A    between atoms: C_4  and  C_5
REMARK    4  A    between atoms: C_5  and  C_6
REMARK    5  A    between atoms: C_6  and  C_7
REMARK    6  A    between atoms: N_8  and  N_9
REMARK                            x       y       z     vdW  Elec       q    Type
REMARK                         _______ _______ _______ _____ _____    ______ ____
ROOT
ATOM      1  C   UNL     1      -3.354   0.907   0.709  0.00  0.00    +0.000 C 
ENDROOT
BRANCH   1   2
ATOM      2  C   UNL     1      -4.837   0.655   0.731  0.00  0.00    +0.000 C 
ATOM      3  N   UNL     1      -5.461   0.574   1.861  0.00  0.00    +0.000 NA
BRANCH   3   4
ATOM      4  N   UNL     1      -6.769   0.366   1.778  0.00  0.00    +0.000 N 
ATOM      5  H   UNL     1      -7.300   0.312   2.642  0.00  0.00    +0.000 HD
ATOM      6  H   UNL     1      -7.273   0.283   0.902  0.00  0.00    +0.000 HD
ENDBRANCH   3   4
ENDBRANCH   1   2
BRANCH   1   7
ATOM      7  C   UNL     1      -2.622  -0.233   0.014  0.00  0.00    +0.000 C 
BRANCH   7   9
ATOM      8  C   UNL     1       0.006   0.260  -0.007  0.00  0.00    +0.000 C 
ATOM      9  C   UNL     1      -1.172   0.019  -0.007  0.00  0.00    +0.000 C 
BRANCH   8  11
ATOM     10  C   UNL     1       2.312  -0.637  -0.001  0.00  0.00    +0.000 C 
ATOM     11  C   UNL     1       1.435   0.603   0.006  0.00  0.00    +0.000 C 
ENDBRANCH   8  11
ENDBRANCH   7   9
ENDBRANCH   1   7
TORSDOF 5
