REMARK  Name = ligand_936718
REMARK  6 active torsions:
REMARK  status: ('A' for Active; 'I' for Inactive)
REMARK    1  A    between atoms: C_1  and  C_2
REMARK    2  A    between atoms: C_2  and  C_3
REMARK    3  A    between atoms: C_3  and  C_4
REMARK    4  A    between atoms: C_4  and  C_5
REMARK    5  A    between atoms: C_5  and  C_6
REMARK    6  A    between atoms: C_6  and  C_7
REMARK                            x       y       z     vdW  Elec       q    Type
REMARK                         _______ _______ _______ _____ _____    ______ ____
ROOT
ATOM      1  C   UNL     1       4.577  -1.798  -3.354  0.00  0.00    +0.000 C 
ENDROOT
BRANCH   1   2
ATOM      2  C   UNL     1       5.104  -2.890  -4.258  0.00  0.00    +0.000 C 
ATOM      3  N   UNL     1       6.343  -2.773  -4.800  0.00  0.00    +0.000 N 
ATOM      4  N   UNL     1       4.401  -3.941  -4.527  0.00  0.00    +0.000 NA
ATOM      5  H   UNL     1       6.714  -1.842  -4.940  0.00  0.00    +0.000 HD
ATOM      6  H   UNL     1       6.488  -3.406  -5.580  0.00  0.00    +0.000 HD
ATOM      7  H   UNL     1       3.498  -3.902  -4.040  0.00  0.00    +0.000 HD
ENDBRANCH   1   2
BRANCH   1   8
ATOM      8  C   UNL     1       4.991  -2.061  -1.907  0.00  0.00    +0.000 C 
BRANCH   8   9
ATOM      9  C   UNL     1       4.462  -1.010  -0.926  0.00  0.00    +0.000 C 
BRANCH   9  10
ATOM     10  C   UNL     1       2.934  -0.984  -0.855  0.00  0.00    +0.000 C 
BRANCH  10  12
ATOM     11  C   UNL     1       0.900   0.070   0.162  0.00  0.00    +0.000 C 
ATOM     12  C   UNL     1       2.421   0.046   0.148  0.00  0.00    +0.000 C 
ENDBRANCH  10  12
ENDBRANCH   9  10
ENDBRANCH   8   9
ENDBRANCH   1   8
TORSDOF 5
