REMARK  Name = ligand_93700
REMARK  4 active torsions:
REMARK  status: ('A' for Active; 'I' for Inactive)
REMARK    1  A    between atoms: C_2  and  C_3
REMARK    2  A    between atoms: C_3  and  C_4
REMARK    3  A    between atoms: C_6  and  C_7
REMARK    4  A    between atoms: C_7  and  C_8
REMARK                            x       y       z     vdW  Elec       q    Type
REMARK                         _______ _______ _______ _____ _____    ______ ____
ROOT
ATOM      1  C   UNL     1       4.684   0.687  -0.707  0.00  0.00    +0.000 C 
ATOM      2  C   UNL     1       5.602   1.492  -1.592  0.00  0.00    +0.000 C 
ATOM      3  C   UNL     1       5.499   0.001  -1.794  0.00  0.00    +0.000 C 
ENDROOT
BRANCH   1   4
ATOM      4  C   UNL     1       3.205   0.948  -0.773  0.00  0.00    +0.000 C 
BRANCH   4   6
ATOM      5  C   UNL     1       1.602   0.531   1.111  0.00  0.00    +0.000 C 
ATOM      6  C   UNL     1       2.396   0.067   0.136  0.00  0.00    +0.000 C 
ENDBRANCH   4   6
ENDBRANCH   1   4
BRANCH   3   7
ATOM      7  C   UNL     1       4.936  -0.523  -3.085  0.00  0.00    +0.000 C 
BRANCH   7   8
ATOM      8  C   UNL     1       4.870  -2.022  -3.148  0.00  0.00    +0.000 C 
ATOM      9  C   UNL     1       3.742  -2.726  -3.311  0.00  0.00    +0.000 C 
ENDBRANCH   7   8
ENDBRANCH   3   7
TORSDOF 4
