REMARK  Name = ligand_937287
REMARK  7 active torsions:
REMARK  status: ('A' for Active; 'I' for Inactive)
REMARK    1  A    between atoms: C_1  and  C_2
REMARK    2  A    between atoms: C_3  and  C_4
REMARK    3  A    between atoms: C_3  and  C_5
REMARK    4  A    between atoms: C_5  and  C_6
REMARK    5  A    between atoms: C_6  and  N_7
REMARK    6  A    between atoms: C_6  and  C_8
REMARK    7  A    between atoms: C_8  and  N_9
REMARK                            x       y       z     vdW  Elec       q    Type
REMARK                         _______ _______ _______ _____ _____    ______ ____
ROOT
ATOM      1  C   UNL     1       5.039  -2.726  -1.650  0.00  0.00    +0.000 C 
ENDROOT
BRANCH   1   2
ATOM      2  N   UNL     1       4.146  -3.750  -2.185  0.00  0.00    +0.000 NA
ATOM      3  H   UNL     1       4.426  -3.956  -3.146  0.00  0.00    +0.000 HD
ATOM      4  H   UNL     1       3.197  -3.386  -2.233  0.00  0.00    +0.000 HD
ENDBRANCH   1   2
BRANCH   1   5
ATOM      5  C   UNL     1       4.753  -2.239  -0.194  0.00  0.00    +0.000 C 
BRANCH   5   8
ATOM      6  C   UNL     1       1.152  -0.843   0.700  0.00  0.00    +0.000 C 
ATOM      7  C   UNL     1       2.373  -1.697   0.503  0.00  0.00    +0.000 C 
ATOM      8  C   UNL     1       3.525  -1.303  -0.082  0.00  0.00    +0.000 C 
ATOM      9  C   UNL     1       3.685   0.097  -0.621  0.00  0.00    +0.000 C 
ENDBRANCH   5   8
ENDBRANCH   1   5
BRANCH   1  10
ATOM     10  C   UNL     1       6.093  -1.593   0.276  0.00  0.00    +0.000 C 
BRANCH  10  11
ATOM     11  N   UNL     1       6.137  -1.057   1.633  0.00  0.00    +0.000 NA
ATOM     12  H   UNL     1       5.485  -0.279   1.716  0.00  0.00    +0.000 HD
ATOM     13  H   UNL     1       7.066  -0.667   1.795  0.00  0.00    +0.000 HD
ENDBRANCH  10  11
ENDBRANCH   1  10
TORSDOF 5
