REMARK  Name = ligand_93825
REMARK  4 active torsions:
REMARK  status: ('A' for Active; 'I' for Inactive)
REMARK    1  A    between atoms: C_1  and  C_2
REMARK    2  A    between atoms: C_2  and  C_3
REMARK    3  A    between atoms: C_2  and  C_8
REMARK    4  A    between atoms: C_3  and  C_4
REMARK                            x       y       z     vdW  Elec       q    Type
REMARK                         _______ _______ _______ _____ _____    ______ ____
ROOT
ATOM      1  C   UNL     1       2.856  -1.504  -0.204  0.00  0.00    +0.000 C 
ENDROOT
BRANCH   1   2
ATOM      2  C   UNL     1       2.465  -2.314   1.031  0.00  0.00    +0.000 C 
ATOM      3  C   UNL     1       3.037  -1.872   2.405  0.00  0.00    +0.000 C 
ATOM      4  C   UNL     1       3.172  -3.368   2.751  0.00  0.00    +0.000 C 
ATOM      5  C   UNL     1       3.248  -3.639   1.235  0.00  0.00    +0.000 C 
ENDBRANCH   1   2
BRANCH   1   7
ATOM      6  C   UNL     1       0.907   0.111   0.046  0.00  0.00    +0.000 C 
ATOM      7  C   UNL     1       2.425  -0.027  -0.099  0.00  0.00    +0.000 C 
BRANCH   7   8
ATOM      8  C   UNL     1       2.878   0.741  -1.323  0.00  0.00    +0.000 C 
ATOM      9  C   UNL     1       3.745   1.767  -1.301  0.00  0.00    +0.000 C 
ENDBRANCH   7   8
ENDBRANCH   1   7
TORSDOF 3
