REMARK  Name = ligand_938369
REMARK  7 active torsions:
REMARK  status: ('A' for Active; 'I' for Inactive)
REMARK    1  A    between atoms: C_1  and  C_2
REMARK    2  A    between atoms: C_3  and  C_4
REMARK    3  A    between atoms: C_4  and  C_5
REMARK    4  A    between atoms: C_4  and  N_6
REMARK    5  A    between atoms: C_4  and  C_7
REMARK    6  A    between atoms: C_7  and  C_8
REMARK    7  A    between atoms: C_7  and  N_9
REMARK                            x       y       z     vdW  Elec       q    Type
REMARK                         _______ _______ _______ _____ _____    ______ ____
ROOT
ATOM      1  C   UNL     1       4.431   1.066  -0.344  0.00  0.00    +0.000 C 
ATOM      2  C   UNL     1       5.042   0.823   1.048  0.00  0.00    +0.000 C 
ENDROOT
BRANCH   1   5
ATOM      3  C   UNL     1       0.667   0.070   0.249  0.00  0.00    +0.000 C 
ATOM      4  C   UNL     1       2.125   0.298   0.493  0.00  0.00    +0.000 C 
ATOM      5  C   UNL     1       2.965   0.709  -0.471  0.00  0.00    +0.000 C 
ENDBRANCH   1   5
BRANCH   1   6
ATOM      6  N   UNL     1       5.142   0.201  -1.298  0.00  0.00    +0.000 NA
ATOM      7  H   UNL     1       4.992  -0.772  -1.033  0.00  0.00    +0.000 HD
ATOM      8  H   UNL     1       6.146   0.356  -1.219  0.00  0.00    +0.000 HD
ENDBRANCH   1   6
BRANCH   1   9
ATOM      9  C   UNL     1       4.644   2.537  -0.797  0.00  0.00    +0.000 C 
ATOM     10  C   UNL     1       3.877   3.576   0.036  0.00  0.00    +0.000 C 
BRANCH   9  11
ATOM     11  N   UNL     1       4.024   4.920  -0.522  0.00  0.00    +0.000 NA
ATOM     12  H   UNL     1       5.006   5.105  -0.723  0.00  0.00    +0.000 HD
ATOM     13  H   UNL     1       3.544   4.963  -1.422  0.00  0.00    +0.000 HD
ENDBRANCH   9  11
ENDBRANCH   1   9
TORSDOF 4
