REMARK  Name = ligand_93831
REMARK  3 active torsions:
REMARK  status: ('A' for Active; 'I' for Inactive)
REMARK    1  A    between atoms: C_1  and  C_2
REMARK    2  A    between atoms: C_3  and  C_4
REMARK    3  A    between atoms: C_6  and  C_8
REMARK                            x       y       z     vdW  Elec       q    Type
REMARK                         _______ _______ _______ _____ _____    ______ ____
ROOT
ATOM      1  C   UNL     1       5.199   0.020   0.039  0.00  0.00    +0.000 C 
ATOM      2  C   UNL     1       5.900  -1.049   0.916  0.00  0.00    +0.000 C 
ATOM      3  C   UNL     1       6.970   0.016   1.280  0.00  0.00    +0.000 C 
ATOM      4  C   UNL     1       5.905   1.085   0.916  0.00  0.00    +0.000 C 
ENDROOT
BRANCH   1   7
ATOM      5  C   UNL     1       0.927   0.023   0.064  0.00  0.00    +0.000 C 
ATOM      6  C   UNL     1       2.447   0.023   0.064  0.00  0.00    +0.000 C 
ATOM      7  C   UNL     1       3.751   0.023   0.064  0.00  0.00    +0.000 C 
ENDBRANCH   1   7
BRANCH   3   8
ATOM      8  C   UNL     1       8.190   0.010   0.423  0.00  0.00    +0.000 C 
ATOM      9  C   UNL     1       9.178   0.883   0.651  0.00  0.00    +0.000 C 
ENDBRANCH   3   8
TORSDOF 2
