REMARK  Name = ligand_93846
REMARK  2 active torsions:
REMARK  status: ('A' for Active; 'I' for Inactive)
REMARK    1  A    between atoms: C_2  and  C_3
REMARK    2  A    between atoms: C_3  and  C_4
REMARK                            x       y       z     vdW  Elec       q    Type
REMARK                         _______ _______ _______ _____ _____    ______ ____
ROOT
ATOM      1  C   UNL     1       4.479  -0.647  -1.042  0.00  0.00    +0.000 C 
ATOM      2  C   UNL     1       5.035   0.041  -2.307  0.00  0.00    +0.000 C 
ATOM      3  C   UNL     1       5.150  -1.091  -3.334  0.00  0.00    +0.000 C 
ATOM      4  C   UNL     1       5.586  -2.262  -2.504  0.00  0.00    +0.000 C 
ATOM      5  C   UNL     1       4.617  -3.202  -1.850  0.00  0.00    +0.000 C 
ATOM      6  C   UNL     1       5.142  -2.014  -1.085  0.00  0.00    +0.000 C 
ENDROOT
BRANCH   1   7
ATOM      7  C   UNL     1       2.942  -0.674  -1.063  0.00  0.00    +0.000 C 
BRANCH   7   9
ATOM      8  C   UNL     1       1.459  -0.679   0.960  0.00  0.00    +0.000 C 
ATOM      9  C   UNL     1       2.338  -1.301   0.162  0.00  0.00    +0.000 C 
ENDBRANCH   7   9
ENDBRANCH   1   7
TORSDOF 2
