REMARK  Name = ligand_93855
REMARK  2 active torsions:
REMARK  status: ('A' for Active; 'I' for Inactive)
REMARK    1  A    between atoms: C_2  and  C_3
REMARK    2  A    between atoms: C_3  and  C_4
REMARK                            x       y       z     vdW  Elec       q    Type
REMARK                         _______ _______ _______ _____ _____    ______ ____
ROOT
ATOM      1  C   UNL     1       4.511  -0.606  -1.338  0.00  0.00    +0.000 C 
ATOM      2  C   UNL     1       5.993  -0.444  -1.378  0.00  0.00    +0.000 C 
ATOM      3  C   UNL     1       6.617  -1.640  -1.308  0.00  0.00    +0.000 C 
ATOM      4  C   UNL     1       5.777  -2.814  -1.060  0.00  0.00    +0.000 C 
ATOM      5  C   UNL     1       4.543  -3.425  -1.388  0.00  0.00    +0.000 C 
ATOM      6  C   UNL     1       4.201  -2.048  -1.231  0.00  0.00    +0.000 C 
ENDROOT
BRANCH   1   7
ATOM      7  C   UNL     1       3.896  -0.021  -0.066  0.00  0.00    +0.000 C 
BRANCH   7   9
ATOM      8  C   UNL     1       4.438   2.734   0.237  0.00  0.00    +0.000 C 
ATOM      9  C   UNL     1       4.188   1.462   0.097  0.00  0.00    +0.000 C 
ENDBRANCH   7   9
ENDBRANCH   1   7
TORSDOF 2
