REMARK  Name = ligand_938916
REMARK  5 active torsions:
REMARK  status: ('A' for Active; 'I' for Inactive)
REMARK    1  A    between atoms: C_1  and  C_2
REMARK    2  A    between atoms: C_2  and  C_3
REMARK    3  A    between atoms: C_4  and  C_5
REMARK    4  A    between atoms: N_7  and  C_8
REMARK    5  A    between atoms: N_7  and  C_9
REMARK                            x       y       z     vdW  Elec       q    Type
REMARK                         _______ _______ _______ _____ _____    ______ ____
ROOT
ATOM      1  C   UNL     1       4.976   2.851   1.156  0.00  0.00    +0.000 C 
ATOM      2  N   UNL     1       4.167   3.793   1.550  0.00  0.00    +0.000 NA
ATOM      3  N   UNL     1       6.344   3.054   1.269  0.00  0.00    +0.000 N 
ATOM      4  C   UNL     1       7.371   2.107   0.858  0.00  0.00    +0.000 C 
ATOM      5  C   UNL     1       6.881   4.309   1.792  0.00  0.00    +0.000 C 
ATOM      6  H   UNL     1       3.194   3.496   1.469  0.00  0.00    +0.000 HD
ENDROOT
BRANCH   1   8
ATOM      7  C   UNL     1       3.229   1.449   0.004  0.00  0.00    +0.000 C 
ATOM      8  C   UNL     1       4.401   1.555   0.655  0.00  0.00    +0.000 C 
BRANCH   7  10
ATOM      9  C   UNL     1       1.370  -0.216   0.143  0.00  0.00    +0.000 C 
ATOM     10  C   UNL     1       2.704   0.132  -0.497  0.00  0.00    +0.000 C 
ENDBRANCH   7  10
ENDBRANCH   1   8
TORSDOF 2
