REMARK  Name = ligand_938973
REMARK  6 active torsions:
REMARK  status: ('A' for Active; 'I' for Inactive)
REMARK    1  A    between atoms: C_1  and  C_2
REMARK    2  A    between atoms: C_2  and  C_3
REMARK    3  A    between atoms: C_3  and  C_4
REMARK    4  A    between atoms: C_4  and  C_5
REMARK    5  A    between atoms: C_5  and  C_8
REMARK    6  A    between atoms: N_6  and  N_7
REMARK                            x       y       z     vdW  Elec       q    Type
REMARK                         _______ _______ _______ _____ _____    ______ ____
ROOT
ATOM      1  C   UNL     1       4.888   2.628  -1.193  0.00  0.00    +0.000 C 
ATOM      2  N   UNL     1       5.053   3.824  -0.712  0.00  0.00    +0.000 NA
ENDROOT
BRANCH   2   3
ATOM      3  N   UNL     1       4.806   4.020   0.603  0.00  0.00    +0.000 N 
ATOM      4  H   UNL     1       5.222   4.907   0.896  0.00  0.00    +0.000 HD
ATOM      5  H   UNL     1       5.188   3.299   1.212  0.00  0.00    +0.000 HD
ENDBRANCH   2   3
BRANCH   1   6
ATOM      6  C   UNL     1       5.119   2.618  -2.618  0.00  0.00    +0.000 C 
ATOM      7  C   UNL     1       5.285   2.624  -3.806  0.00  0.00    +0.000 C 
ENDBRANCH   1   6
BRANCH   1   8
ATOM      8  C   UNL     1       4.464   1.360  -0.507  0.00  0.00    +0.000 C 
BRANCH   8   9
ATOM      9  C   UNL     1       2.941   1.248  -0.487  0.00  0.00    +0.000 C 
BRANCH   9  11
ATOM     10  C   UNL     1       0.956  -0.160   0.136  0.00  0.00    +0.000 C 
ATOM     11  C   UNL     1       2.475  -0.077   0.114  0.00  0.00    +0.000 C 
ENDBRANCH   9  11
ENDBRANCH   8   9
ENDBRANCH   1   8
TORSDOF 5
