REMARK  Name = ligand_939083
REMARK  4 active torsions:
REMARK  status: ('A' for Active; 'I' for Inactive)
REMARK    1  A    between atoms: C_1  and  C_2
REMARK    2  A    between atoms: C_2  and  C_3
REMARK    3  A    between atoms: C_3  and  C_5
REMARK    4  A    between atoms: N_6  and  N_7
REMARK                            x       y       z     vdW  Elec       q    Type
REMARK                         _______ _______ _______ _____ _____    ______ ____
ROOT
ATOM      1  C   UNL     1       4.426  -0.638   1.596  0.00  0.00    +0.000 C 
ATOM      2  N   UNL     1       5.282  -0.310   0.683  0.00  0.00    +0.000 NA
ENDROOT
BRANCH   2   3
ATOM      3  N   UNL     1       6.599  -0.432   1.020  0.00  0.00    +0.000 N 
ATOM      4  C   UNL     1       7.610  -0.120   0.155  0.00  0.00    +0.000 C 
ATOM      5  N   UNL     1       7.472   0.312  -1.048  0.00  0.00    +0.000 NA
ATOM      6  H   UNL     1       6.866  -0.763   1.944  0.00  0.00    +0.000 HD
ATOM      7  H   UNL     1       6.452   0.365  -1.194  0.00  0.00    +0.000 HD
ENDBRANCH   2   3
BRANCH   1   8
ATOM      8  C   UNL     1       2.952  -0.557   1.371  0.00  0.00    +0.000 C 
ATOM      9  C   UNL     1       2.159  -0.924   2.390  0.00  0.00    +0.000 C 
BRANCH   8  11
ATOM     10  C   UNL     1       1.000   0.010  -0.206  0.00  0.00    +0.000 C 
ATOM     11  C   UNL     1       2.507  -0.069   0.014  0.00  0.00    +0.000 C 
ENDBRANCH   8  11
ENDBRANCH   1   8
TORSDOF 3
