REMARK  Name = ligand_939210
REMARK  5 active torsions:
REMARK  status: ('A' for Active; 'I' for Inactive)
REMARK    1  A    between atoms: C_1  and  C_2
REMARK    2  A    between atoms: C_2  and  C_3
REMARK    3  A    between atoms: C_2  and  N_5
REMARK    4  A    between atoms: C_7  and  C_8
REMARK    5  A    between atoms: C_7  and  C_9
REMARK                            x       y       z     vdW  Elec       q    Type
REMARK                         _______ _______ _______ _____ _____    ______ ____
ROOT
ATOM      1  N   UNL     1       2.955   1.110   0.967  0.00  0.00    +0.000 NA
ATOM      2  C   UNL     1       2.820   0.785   2.386  0.00  0.00    +0.000 C 
ATOM      3  C   UNL     1       4.185   0.831   1.734  0.00  0.00    +0.000 C 
ATOM      4  C   UNL     1       4.940  -0.469   1.659  0.00  0.00    +0.000 C 
ATOM      5  C   UNL     1       5.058   2.034   1.985  0.00  0.00    +0.000 C 
ENDROOT
BRANCH   1   7
ATOM      6  C   UNL     1       0.986  -0.167   0.208  0.00  0.00    +0.000 C 
ATOM      7  C   UNL     1       2.491   0.093   0.022  0.00  0.00    +0.000 C 
BRANCH   7   8
ATOM      8  C   UNL     1       2.688   0.603  -1.396  0.00  0.00    +0.000 C 
ATOM      9  C   UNL     1       2.857   1.041  -2.613  0.00  0.00    +0.000 C 
ENDBRANCH   7   8
ENDBRANCH   1   7
TORSDOF 2
