REMARK  Name = ligand_939580
REMARK  4 active torsions:
REMARK  status: ('A' for Active; 'I' for Inactive)
REMARK    1  A    between atoms: C_1  and  C_2
REMARK    2  A    between atoms: C_3  and  C_4
REMARK    3  A    between atoms: C_3  and  C_6
REMARK    4  A    between atoms: N_8  and  C_9
REMARK                            x       y       z     vdW  Elec       q    Type
REMARK                         _______ _______ _______ _____ _____    ______ ____
ROOT
ATOM      1  C   UNL     1       0.958   0.283   0.747  0.00  0.00    +0.000 C 
ATOM      2  C   UNL     1       2.457   0.330   0.786  0.00  0.00    +0.000 C 
ATOM      3  C   UNL     1       3.221   1.220   0.118  0.00  0.00    +0.000 C 
ENDROOT
BRANCH   3   4
ATOM      4  C   UNL     1       4.686   1.334   0.156  0.00  0.00    +0.000 C 
ATOM      5  C   UNL     1       5.488   1.160  -1.116  0.00  0.00    +0.000 C 
ATOM      6  N   UNL     1       5.628   0.223  -0.012  0.00  0.00    +0.000 NA
ATOM      7  C   UNL     1       5.111  -1.104  -0.322  0.00  0.00    +0.000 C 
ENDBRANCH   3   4
BRANCH   3   8
ATOM      8  C   UNL     1       2.496   2.333  -0.620  0.00  0.00    +0.000 C 
ATOM      9  N   UNL     1       1.894   3.256  -1.233  0.00  0.00    +0.000 NA
ENDBRANCH   3   8
TORSDOF 2
