REMARK  Name = ligand_941051
REMARK  7 active torsions:
REMARK  status: ('A' for Active; 'I' for Inactive)
REMARK    1  A    between atoms: C_1  and  C_2
REMARK    2  A    between atoms: C_2  and  C_3
REMARK    3  A    between atoms: C_2  and  C_4
REMARK    4  A    between atoms: N_5  and  N_6
REMARK    5  A    between atoms: N_6  and  C_7
REMARK    6  A    between atoms: C_7  and  C_8
REMARK    7  A    between atoms: C_8  and  N_9
REMARK                            x       y       z     vdW  Elec       q    Type
REMARK                         _______ _______ _______ _____ _____    ______ ____
ROOT
ATOM      1  N   UNL     1       4.680  -1.879  -2.174  0.00  0.00    +0.000 N 
ATOM      2  H   UNL     1       4.203  -2.781  -2.149  0.00  0.00    +0.000 HD
ENDROOT
BRANCH   1   4
ATOM      3  C   UNL     1       3.054  -0.929  -0.993  0.00  0.00    +0.000 C 
ATOM      4  N   UNL     1       4.333  -1.056  -1.158  0.00  0.00    +0.000 NA
BRANCH   3   6
ATOM      5  C   UNL     1       1.598   1.032  -0.633  0.00  0.00    +0.000 C 
ATOM      6  C   UNL     1       2.511   0.021   0.051  0.00  0.00    +0.000 C 
ATOM      7  C   UNL     1       1.763  -0.757   1.125  0.00  0.00    +0.000 C 
ENDBRANCH   3   6
ENDBRANCH   1   4
BRANCH   1   8
ATOM      8  C   UNL     1       6.120  -2.070  -2.392  0.00  0.00    +0.000 C 
BRANCH   8   9
ATOM      9  C   UNL     1       6.724  -3.152  -1.481  0.00  0.00    +0.000 C 
BRANCH   9  10
ATOM     10  N   UNL     1       8.150  -3.359  -1.749  0.00  0.00    +0.000 NA
ATOM     11  H   UNL     1       8.283  -3.653  -2.715  0.00  0.00    +0.000 HD
ATOM     12  H   UNL     1       8.497  -4.116  -1.163  0.00  0.00    +0.000 HD
ENDBRANCH   9  10
ENDBRANCH   8   9
ENDBRANCH   1   8
TORSDOF 5
