REMARK  Name = ligand_941211
REMARK  6 active torsions:
REMARK  status: ('A' for Active; 'I' for Inactive)
REMARK    1  A    between atoms: C_1  and  C_2
REMARK    2  A    between atoms: C_2  and  C_3
REMARK    3  A    between atoms: C_3  and  C_4
REMARK    4  A    between atoms: N_6  and  N_7
REMARK    5  A    between atoms: N_6  and  C_8
REMARK    6  A    between atoms: C_8  and  C_9
REMARK                            x       y       z     vdW  Elec       q    Type
REMARK                         _______ _______ _______ _____ _____    ______ ____
ROOT
ATOM      1  C   UNL     1       4.287   1.068  -1.241  0.00  0.00    +0.000 C 
ATOM      2  N   UNL     1       5.191   0.367  -0.625  0.00  0.00    +0.000 NA
ATOM      3  N   UNL     1       4.610   1.953  -2.256  0.00  0.00    +0.000 N 
ATOM      4  H   UNL     1       4.756  -0.218   0.096  0.00  0.00    +0.000 HD
ENDROOT
BRANCH   3   5
ATOM      5  N   UNL     1       5.626   1.481  -3.132  0.00  0.00    +0.000 NA
ATOM      6  H   UNL     1       3.829   2.413  -2.719  0.00  0.00    +0.000 HD
ATOM      7  H   UNL     1       6.191   0.796  -2.609  0.00  0.00    +0.000 HD
ENDBRANCH   3   5
BRANCH   3   8
ATOM      8  C   UNL     1       6.483   2.611  -3.496  0.00  0.00    +0.000 C 
ATOM      9  C   UNL     1       7.583   2.144  -4.436  0.00  0.00    +0.000 C 
ENDBRANCH   3   8
BRANCH   1  10
ATOM     10  C   UNL     1       2.818   0.921  -0.871  0.00  0.00    +0.000 C 
BRANCH  10  12
ATOM     11  C   UNL     1       2.653   3.070   0.466  0.00  0.00    +0.000 C 
ATOM     12  C   UNL     1       2.469   1.560   0.466  0.00  0.00    +0.000 C 
ENDBRANCH  10  12
ENDBRANCH   1  10
TORSDOF 4
