REMARK  Name = ligand_941220
REMARK  3 active torsions:
REMARK  status: ('A' for Active; 'I' for Inactive)
REMARK    1  A    between atoms: C_1  and  C_2
REMARK    2  A    between atoms: C_2  and  C_3
REMARK    3  A    between atoms: C_2  and  N_4
REMARK                            x       y       z     vdW  Elec       q    Type
REMARK                         _______ _______ _______ _____ _____    ______ ____
ROOT
ATOM      1  N   UNL     1       2.620  -1.294  -0.473  0.00  0.00    +0.000 NA
ATOM      2  C   UNL     1       1.803  -2.367   0.245  0.00  0.00    +0.000 C 
ATOM      3  C   UNL     1       2.916  -2.362   1.356  0.00  0.00    +0.000 C 
ATOM      4  C   UNL     1       3.751  -2.199   0.022  0.00  0.00    +0.000 C 
ATOM      5  C   UNL     1       3.455  -3.443  -0.748  0.00  0.00    +0.000 C 
ATOM      6  C   UNL     1       2.126  -3.555  -0.597  0.00  0.00    +0.000 C 
ENDROOT
BRANCH   1   8
ATOM      7  C   UNL     1       3.525   0.942  -0.776  0.00  0.00    +0.000 C 
ATOM      8  C   UNL     1       2.623   0.058   0.099  0.00  0.00    +0.000 C 
ATOM      9  C   UNL     1       1.212   0.655   0.105  0.00  0.00    +0.000 C 
ENDBRANCH   1   8
TORSDOF 1
