REMARK  Name = ligand_94173
REMARK  3 active torsions:
REMARK  status: ('A' for Active; 'I' for Inactive)
REMARK    1  A    between atoms: C_2  and  C_3
REMARK    2  A    between atoms: C_2  and  C_5
REMARK    3  A    between atoms: C_7  and  C_8
REMARK                            x       y       z     vdW  Elec       q    Type
REMARK                         _______ _______ _______ _____ _____    ______ ____
ROOT
ATOM      1  C   UNL     1       3.056  -0.219   1.271  0.00  0.00    +0.000 C 
ATOM      2  C   UNL     1       4.405   0.444   1.413  0.00  0.00    +0.000 C 
ATOM      3  C   UNL     1       4.313  -1.057   1.378  0.00  0.00    +0.000 C 
ENDROOT
BRANCH   1   5
ATOM      4  C   UNL     1       2.287   0.949  -0.812  0.00  0.00    +0.000 C 
ATOM      5  C   UNL     1       2.294  -0.110   0.014  0.00  0.00    +0.000 C 
BRANCH   5   6
ATOM      6  C   UNL     1       1.436  -1.211  -0.290  0.00  0.00    +0.000 C 
ATOM      7  C   UNL     1       0.697  -2.120  -0.551  0.00  0.00    +0.000 C 
ENDBRANCH   5   6
ENDBRANCH   1   5
BRANCH   3   8
ATOM      8  C   UNL     1       4.859  -1.748   0.244  0.00  0.00    +0.000 C 
ATOM      9  C   UNL     1       5.317  -2.346  -0.690  0.00  0.00    +0.000 C 
ENDBRANCH   3   8
TORSDOF 3
