REMARK  Name = ligand_9427
REMARK  3 active torsions:
REMARK  status: ('A' for Active; 'I' for Inactive)
REMARK    1  A    between atoms: C_1  and  C_2
REMARK    2  A    between atoms: C_2  and  C_3
REMARK    3  A    between atoms: C_8  and  C_9
REMARK                            x       y       z     vdW  Elec       q    Type
REMARK                         _______ _______ _______ _____ _____    ______ ____
ROOT
ATOM      1  C   UNL     1       2.653   1.809   0.384  0.00  0.00    +0.000 C 
ATOM      2  C   UNL     1       4.077   2.105   0.901  0.00  0.00    +0.000 C 
ATOM      3  C   UNL     1       4.811   2.787  -0.288  0.00  0.00    +0.000 C 
ATOM      4  C   UNL     1       3.685   3.306  -1.190  0.00  0.00    +0.000 C 
ATOM      5  C   UNL     1       2.554   3.252  -0.242  0.00  0.00    +0.000 C 
ATOM      6  C   UNL     1       1.329   2.518  -0.077  0.00  0.00    +0.000 C 
ATOM      7  C   UNL     1       0.571   2.289  -1.350  0.00  0.00    +0.000 C 
ENDROOT
BRANCH   1   9
ATOM      8  C   UNL     1       2.759  -0.688   0.882  0.00  0.00    +0.000 C 
ATOM      9  C   UNL     1       2.645   0.385  -0.204  0.00  0.00    +0.000 C 
ENDBRANCH   1   9
TORSDOF 1
