REMARK  Name = ligand_943447
REMARK  6 active torsions:
REMARK  status: ('A' for Active; 'I' for Inactive)
REMARK    1  A    between atoms: C_1  and  C_2
REMARK    2  A    between atoms: C_2  and  C_3
REMARK    3  A    between atoms: N_4  and  C_5
REMARK    4  A    between atoms: N_6  and  N_7
REMARK    5  A    between atoms: N_7  and  C_8
REMARK    6  A    between atoms: N_7  and  C_9
REMARK                            x       y       z     vdW  Elec       q    Type
REMARK                         _______ _______ _______ _____ _____    ______ ____
ROOT
ATOM      1  C   UNL     1       2.840  -1.250  -1.120  0.00  0.00    +0.000 C 
ATOM      2  N   UNL     1       1.852  -1.699  -1.974  0.00  0.00    +0.000 N 
ATOM      3  C   UNL     1       0.455  -1.849  -1.643  0.00  0.00    +0.000 C 
ATOM      4  N   UNL     1       4.096  -1.616  -1.171  0.00  0.00    +0.000 NA
ATOM      5  H   UNL     1       2.214  -2.417  -2.598  0.00  0.00    +0.000 HD
ENDROOT
BRANCH   4   6
ATOM      6  N   UNL     1       4.486  -2.323  -2.279  0.00  0.00    +0.000 N 
ATOM      7  C   UNL     1       4.310  -3.779  -2.305  0.00  0.00    +0.000 C 
ATOM      8  C   UNL     1       5.876  -2.026  -2.677  0.00  0.00    +0.000 C 
ENDBRANCH   4   6
BRANCH   1  10
ATOM      9  C   UNL     1       2.444  -0.558   1.324  0.00  0.00    +0.000 C 
ATOM     10  C   UNL     1       2.518  -0.131  -0.131  0.00  0.00    +0.000 C 
ENDBRANCH   1  10
TORSDOF 2
