REMARK  Name = ligand_943609
REMARK  5 active torsions:
REMARK  status: ('A' for Active; 'I' for Inactive)
REMARK    1  A    between atoms: C_1  and  C_2
REMARK    2  A    between atoms: C_2  and  C_3
REMARK    3  A    between atoms: N_4  and  N_5
REMARK    4  A    between atoms: N_5  and  C_6
REMARK    5  A    between atoms: C_8  and  C_9
REMARK                            x       y       z     vdW  Elec       q    Type
REMARK                         _______ _______ _______ _____ _____    ______ ____
ROOT
ATOM      1  N   UNL     1       4.602   1.442  -2.816  0.00  0.00    +0.000 N 
ATOM      2  H   UNL     1       4.095   1.039  -3.607  0.00  0.00    +0.000 HD
ENDROOT
BRANCH   1   3
ATOM      3  C   UNL     1       6.050   1.291  -3.011  0.00  0.00    +0.000 C 
ATOM      4  C   UNL     1       6.975   2.334  -2.438  0.00  0.00    +0.000 C 
ATOM      5  C   UNL     1       6.831   2.202  -3.930  0.00  0.00    +0.000 C 
ATOM      6  C   UNL     1       6.199   3.298  -4.715  0.00  0.00    +0.000 C 
ENDBRANCH   1   3
BRANCH   1   8
ATOM      7  C   UNL     1       3.055   0.859  -1.335  0.00  0.00    +0.000 C 
ATOM      8  N   UNL     1       4.310   0.816  -1.651  0.00  0.00    +0.000 NA
BRANCH   7  10
ATOM      9  C   UNL     1       1.549  -0.840  -0.313  0.00  0.00    +0.000 C 
ATOM     10  C   UNL     1       2.575   0.245  -0.047  0.00  0.00    +0.000 C 
ENDBRANCH   7  10
ENDBRANCH   1   8
TORSDOF 3
