REMARK  Name = ligand_943664
REMARK  5 active torsions:
REMARK  status: ('A' for Active; 'I' for Inactive)
REMARK    1  A    between atoms: C_1  and  C_2
REMARK    2  A    between atoms: C_2  and  C_3
REMARK    3  A    between atoms: C_2  and  C_7
REMARK    4  A    between atoms: C_3  and  N_4
REMARK    5  A    between atoms: N_4  and  N_5
REMARK                            x       y       z     vdW  Elec       q    Type
REMARK                         _______ _______ _______ _____ _____    ______ ____
ROOT
ATOM      1  C   UNL     1       0.924   0.108   0.105  0.00  0.00    +0.000 C 
ATOM      2  C   UNL     1       2.454   0.002   0.047  0.00  0.00    +0.000 C 
ENDROOT
BRANCH   2   3
ATOM      3  C   UNL     1       2.984   0.969  -0.996  0.00  0.00    +0.000 C 
ATOM      4  C   UNL     1       4.470   1.200  -1.136  0.00  0.00    +0.000 C 
ATOM      5  C   UNL     1       3.592   2.288  -0.587  0.00  0.00    +0.000 C 
ENDBRANCH   2   3
BRANCH   2   6
ATOM      6  C   UNL     1       2.924  -1.434  -0.281  0.00  0.00    +0.000 C 
BRANCH   6   7
ATOM      7  N   UNL     1       2.544  -2.420   0.738  0.00  0.00    +0.000 N 
ATOM      8  H   UNL     1       1.530  -2.406   0.859  0.00  0.00    +0.000 HD
BRANCH   7   9
ATOM      9  N   UNL     1       3.001  -3.677   0.518  0.00  0.00    +0.000 NA
ATOM     10  C   UNL     1       2.665  -4.519   1.435  0.00  0.00    +0.000 C 
ENDBRANCH   7   9
ENDBRANCH   6   7
ENDBRANCH   2   6
TORSDOF 4
