REMARK  Name = ligand_943856
REMARK  4 active torsions:
REMARK  status: ('A' for Active; 'I' for Inactive)
REMARK    1  A    between atoms: C_1  and  C_2
REMARK    2  A    between atoms: C_2  and  C_3
REMARK    3  A    between atoms: N_4  and  N_5
REMARK    4  A    between atoms: N_5  and  C_6
REMARK                            x       y       z     vdW  Elec       q    Type
REMARK                         _______ _______ _______ _____ _____    ______ ____
ROOT
ATOM      1  N   UNL     1       4.754   0.993  -0.084  0.00  0.00    +0.000 N 
ATOM      2  C   UNL     1       5.311   2.165   0.434  0.00  0.00    +0.000 C 
ATOM      3  N   UNL     1       4.668   3.210   0.853  0.00  0.00    +0.000 NA
ATOM      4  H   UNL     1       3.676   2.974   0.700  0.00  0.00    +0.000 HD
ENDROOT
BRANCH   1   8
ATOM      5  C   UNL     1       1.082   0.450  -0.188  0.00  0.00    +0.000 C 
ATOM      6  C   UNL     1       2.546   0.062  -0.095  0.00  0.00    +0.000 C 
ATOM      7  C   UNL     1       2.849  -1.389   0.178  0.00  0.00    +0.000 C 
ATOM      8  N   UNL     1       3.376   1.050  -0.231  0.00  0.00    +0.000 NA
ENDBRANCH   1   8
BRANCH   1   9
ATOM      9  C   UNL     1       5.544   0.007  -0.673  0.00  0.00    +0.000 C 
ATOM     10  C   UNL     1       6.877  -0.144  -0.712  0.00  0.00    +0.000 C 
ENDBRANCH   1   9
TORSDOF 2
