REMARK  Name = ligand_944096
REMARK  3 active torsions:
REMARK  status: ('A' for Active; 'I' for Inactive)
REMARK    1  A    between atoms: C_2  and  C_3
REMARK    2  A    between atoms: N_5  and  N_6
REMARK    3  A    between atoms: C_7  and  C_8
REMARK                            x       y       z     vdW  Elec       q    Type
REMARK                         _______ _______ _______ _____ _____    ______ ____
ROOT
ATOM      1  C   UNL     1       3.177  -1.152   0.797  0.00  0.00    +0.000 C 
ATOM      2  N   UNL     1       2.605  -2.061   1.530  0.00  0.00    +0.000 NA
ATOM      3  N   UNL     1       4.552  -1.148   0.763  0.00  0.00    +0.000 N 
ATOM      4  H   UNL     1       1.587  -1.993   1.439  0.00  0.00    +0.000 HD
ATOM      5  H   UNL     1       4.960  -1.866   1.360  0.00  0.00    +0.000 HD
ENDROOT
BRANCH   1   7
ATOM      6  C   UNL     1       1.189   0.286   0.333  0.00  0.00    +0.000 C 
ATOM      7  C   UNL     1       2.394  -0.177  -0.020  0.00  0.00    +0.000 C 
ENDBRANCH   1   7
BRANCH   3   8
ATOM      8  N   UNL     1       5.306  -0.259   0.059  0.00  0.00    +0.000 NA
ATOM      9  C   UNL     1       6.581  -0.388   0.175  0.00  0.00    +0.000 C 
BRANCH   9  10
ATOM     10  C   UNL     1       7.318   0.584  -0.590  0.00  0.00    +0.000 C 
ATOM     11  N   UNL     1       7.936   1.359  -1.198  0.00  0.00    +0.000 NA
ENDBRANCH   9  10
ENDBRANCH   3   8
TORSDOF 3
