REMARK  Name = ligand_944169
REMARK  3 active torsions:
REMARK  status: ('A' for Active; 'I' for Inactive)
REMARK    1  A    between atoms: C_1  and  C_2
REMARK    2  A    between atoms: C_2  and  N_3
REMARK    3  A    between atoms: C_5  and  C_6
REMARK                            x       y       z     vdW  Elec       q    Type
REMARK                         _______ _______ _______ _____ _____    ______ ____
ROOT
ATOM      1  N   UNL     1       3.170  -1.305  -0.702  0.00  0.00    +0.000 NA
ATOM      2  C   UNL     1       2.243  -2.339  -1.149  0.00  0.00    +0.000 C 
ATOM      3  C   UNL     1       3.066  -2.531   0.098  0.00  0.00    +0.000 C 
ENDROOT
BRANCH   3   4
ATOM      4  C   UNL     1       2.428  -2.688   1.457  0.00  0.00    +0.000 C 
ATOM      5  C   UNL     1       3.332  -2.865   2.695  0.00  0.00    +0.000 C 
ATOM      6  N   UNL     1       2.511  -4.004   3.136  0.00  0.00    +0.000 NA
ATOM      7  C   UNL     1       1.861  -4.076   1.822  0.00  0.00    +0.000 C 
ATOM      8  H   UNL     1       1.872  -3.776   3.896  0.00  0.00    +0.000 HD
ENDBRANCH   3   4
BRANCH   1  10
ATOM      9  C   UNL     1       1.778   0.678  -1.255  0.00  0.00    +0.000 C 
ATOM     10  C   UNL     1       2.548  -0.092  -0.182  0.00  0.00    +0.000 C 
ENDBRANCH   1  10
TORSDOF 2
