REMARK  Name = ligand_944490
REMARK  2 active torsions:
REMARK  status: ('A' for Active; 'I' for Inactive)
REMARK    1  A    between atoms: C_1  and  C_2
REMARK    2  A    between atoms: C_2  and  N_3
REMARK                            x       y       z     vdW  Elec       q    Type
REMARK                         _______ _______ _______ _____ _____    ______ ____
ROOT
ATOM      1  N   UNL     1       3.120  -1.526   0.100  0.00  0.00    +0.000 NA
ATOM      2  C   UNL     1       4.441  -1.537  -0.553  0.00  0.00    +0.000 C 
ATOM      3  C   UNL     1       5.281  -2.781  -0.570  0.00  0.00    +0.000 C 
ATOM      4  C   UNL     1       5.005  -4.033  -0.188  0.00  0.00    +0.000 C 
ATOM      5  C   UNL     1       3.781  -4.521   0.379  0.00  0.00    +0.000 C 
ATOM      6  C   UNL     1       2.582  -3.936   0.278  0.00  0.00    +0.000 C 
ATOM      7  C   UNL     1       2.267  -2.619  -0.370  0.00  0.00    +0.000 C 
ENDROOT
BRANCH   1   9
ATOM      8  C   UNL     1       1.158   0.061   0.494  0.00  0.00    +0.000 C 
ATOM      9  C   UNL     1       2.519  -0.197  -0.148  0.00  0.00    +0.000 C 
ENDBRANCH   1   9
TORSDOF 1
