REMARK  Name = ligand_944688
REMARK  3 active torsions:
REMARK  status: ('A' for Active; 'I' for Inactive)
REMARK    1  A    between atoms: C_1  and  C_2
REMARK    2  A    between atoms: C_2  and  N_3
REMARK    3  A    between atoms: N_6  and  C_7
REMARK                            x       y       z     vdW  Elec       q    Type
REMARK                         _______ _______ _______ _____ _____    ______ ____
ROOT
ATOM      1  N   UNL     1       3.042  -0.263   1.310  0.00  0.00    +0.000 N 
ATOM      2  C   UNL     1       3.466   0.586   2.322  0.00  0.00    +0.000 A 
ATOM      3  C   UNL     1       3.731  -0.159   3.405  0.00  0.00    +0.000 A 
ATOM      4  N   UNL     1       3.470  -1.488   3.095  0.00  0.00    +0.000 N 
ATOM      5  C   UNL     1       3.587  -2.600   4.002  0.00  0.00    +0.000 C 
ATOM      6  C   UNL     1       3.018  -1.581   1.774  0.00  0.00    +0.000 A 
ATOM      7  N   UNL     1       2.650  -2.621   1.116  0.00  0.00    +0.000 NA
ATOM      8  H   UNL     1       2.740  -3.441   1.715  0.00  0.00    +0.000 HD
ENDROOT
BRANCH   1  10
ATOM      9  C   UNL     1       1.035   0.319   0.048  0.00  0.00    +0.000 C 
ATOM     10  C   UNL     1       2.544   0.130   0.010  0.00  0.00    +0.000 C 
ENDBRANCH   1  10
TORSDOF 1
