REMARK  Name = ligand_944848
REMARK  3 active torsions:
REMARK  status: ('A' for Active; 'I' for Inactive)
REMARK    1  A    between atoms: C_1  and  C_2
REMARK    2  A    between atoms: C_2  and  N_3
REMARK    3  A    between atoms: N_8  and  C_9
REMARK                            x       y       z     vdW  Elec       q    Type
REMARK                         _______ _______ _______ _____ _____    ______ ____
ROOT
ATOM      1  N   UNL     1       2.943   1.072   1.077  0.00  0.00    +0.000 N 
ATOM      2  N   UNL     1       2.686   0.819   2.410  0.00  0.00    +0.000 NA
ATOM      3  C   UNL     1       2.825   1.964   3.004  0.00  0.00    +0.000 C 
ATOM      4  C   UNL     1       3.116   3.122   2.088  0.00  0.00    +0.000 C 
ATOM      5  C   UNL     1       3.243   2.384   0.779  0.00  0.00    +0.000 C 
ATOM      6  N   UNL     1       3.548   2.895  -0.367  0.00  0.00    +0.000 NA
ATOM      7  C   UNL     1       3.870   4.313  -0.402  0.00  0.00    +0.000 C 
ENDROOT
BRANCH   1   9
ATOM      8  C   UNL     1       1.098   0.311  -0.326  0.00  0.00    +0.000 C 
ATOM      9  C   UNL     1       2.544   0.080   0.093  0.00  0.00    +0.000 C 
ENDBRANCH   1   9
TORSDOF 1
