REMARK  Name = ligand_944927
REMARK  3 active torsions:
REMARK  status: ('A' for Active; 'I' for Inactive)
REMARK    1  A    between atoms: C_1  and  C_2
REMARK    2  A    between atoms: C_2  and  N_3
REMARK    3  A    between atoms: C_2  and  C_4
REMARK                            x       y       z     vdW  Elec       q    Type
REMARK                         _______ _______ _______ _____ _____    ______ ____
ROOT
ATOM      1  C   UNL     1       3.404   1.326  -0.412  0.00  0.00    +0.000 C 
ATOM      2  C   UNL     1       3.676   2.307   0.715  0.00  0.00    +0.000 C 
ATOM      3  N   UNL     1       2.800   2.695  -0.375  0.00  0.00    +0.000 NA
ATOM      4  C   UNL     1       3.502   3.480  -1.410  0.00  0.00    +0.000 C 
ATOM      5  C   UNL     1       4.034   2.461  -2.405  0.00  0.00    +0.000 C 
ATOM      6  C   UNL     1       4.398   1.255  -1.548  0.00  0.00    +0.000 C 
ENDROOT
BRANCH   1   8
ATOM      7  C   UNL     1       2.223  -0.828  -1.201  0.00  0.00    +0.000 C 
ATOM      8  C   UNL     1       2.557   0.112  -0.046  0.00  0.00    +0.000 C 
BRANCH   8   9
ATOM      9  N   UNL     1       3.268  -0.634   1.001  0.00  0.00    +0.000 NA
ATOM     10  H   UNL     1       4.096  -1.069   0.602  0.00  0.00    +0.000 HD
ATOM     11  H   UNL     1       2.674  -1.396   1.324  0.00  0.00    +0.000 HD
ENDBRANCH   8   9
ENDBRANCH   1   8
TORSDOF 2
