REMARK  Name = ligand_945024
REMARK  4 active torsions:
REMARK  status: ('A' for Active; 'I' for Inactive)
REMARK    1  A    between atoms: C_1  and  C_2
REMARK    2  A    between atoms: C_2  and  N_3
REMARK    3  A    between atoms: C_2  and  C_4
REMARK    4  A    between atoms: C_2  and  C_7
REMARK                            x       y       z     vdW  Elec       q    Type
REMARK                         _______ _______ _______ _____ _____    ______ ____
ROOT
ATOM      1  C   UNL     1       1.043   0.106   0.062  0.00  0.00    +0.000 C 
ATOM      2  C   UNL     1       2.573   0.026   0.044  0.00  0.00    +0.000 C 
ENDROOT
BRANCH   2   3
ATOM      3  C   UNL     1       3.056  -0.984  -1.061  0.00  0.00    +0.000 C 
ATOM      4  N   UNL     1       2.317  -2.068  -1.425  0.00  0.00    +0.000 N 
ATOM      5  N   UNL     1       4.201  -0.805  -1.652  0.00  0.00    +0.000 NA
ATOM      6  H   UNL     1       1.741  -2.508  -0.720  0.00  0.00    +0.000 HD
ATOM      7  H   UNL     1       2.862  -2.722  -1.979  0.00  0.00    +0.000 HD
ATOM      8  H   UNL     1       4.592   0.063  -1.245  0.00  0.00    +0.000 HD
ENDBRANCH   2   3
BRANCH   2   9
ATOM      9  N   UNL     1       3.127   1.340  -0.344  0.00  0.00    +0.000 NA
ATOM     10  H   UNL     1       2.742   2.054   0.270  0.00  0.00    +0.000 HD
ATOM     11  H   UNL     1       2.787   1.563  -1.281  0.00  0.00    +0.000 HD
ENDBRANCH   2   9
BRANCH   2  12
ATOM     12  C   UNL     1       3.100  -0.398   1.404  0.00  0.00    +0.000 C 
ATOM     13  C   UNL     1       2.886   0.454   2.640  0.00  0.00    +0.000 C 
ATOM     14  C   UNL     1       4.275   0.262   2.101  0.00  0.00    +0.000 C 
ENDBRANCH   2  12
TORSDOF 3
