REMARK  Name = ligand_945175
REMARK  4 active torsions:
REMARK  status: ('A' for Active; 'I' for Inactive)
REMARK    1  A    between atoms: C_1  and  C_2
REMARK    2  A    between atoms: C_2  and  N_3
REMARK    3  A    between atoms: N_3  and  C_4
REMARK    4  A    between atoms: C_8  and  C_9
REMARK                            x       y       z     vdW  Elec       q    Type
REMARK                         _______ _______ _______ _____ _____    ______ ____
ROOT
ATOM      1  C   UNL     1       4.416   1.289   0.280  0.00  0.00    +0.000 C 
ATOM      2  C   UNL     1       5.011   2.149  -0.794  0.00  0.00    +0.000 C 
ATOM      3  C   UNL     1       6.031   2.886  -0.348  0.00  0.00    +0.000 C 
ATOM      4  C   UNL     1       6.277   2.654   1.105  0.00  0.00    +0.000 C 
ATOM      5  C   UNL     1       4.983   1.955   1.570  0.00  0.00    +0.000 C 
ATOM      6  C   UNL     1       4.050   2.978   2.236  0.00  0.00    +0.000 C 
ENDROOT
BRANCH   1   7
ATOM      7  N   UNL     1       2.960   1.209   0.251  0.00  0.00    +0.000 NA
ATOM      8  H   UNL     1       2.641   0.675   1.059  0.00  0.00    +0.000 HD
BRANCH   7  10
ATOM      9  C   UNL     1       0.921   0.569  -0.931  0.00  0.00    +0.000 C 
ATOM     10  C   UNL     1       2.441   0.596  -0.971  0.00  0.00    +0.000 C 
ENDBRANCH   7  10
ENDBRANCH   1   7
TORSDOF 2
