REMARK  Name = ligand_946056
REMARK  5 active torsions:
REMARK  status: ('A' for Active; 'I' for Inactive)
REMARK    1  A    between atoms: C_1  and  C_2
REMARK    2  A    between atoms: C_2  and  N_3
REMARK    3  A    between atoms: N_3  and  C_4
REMARK    4  A    between atoms: C_4  and  C_5
REMARK    5  A    between atoms: C_4  and  C_7
REMARK                            x       y       z     vdW  Elec       q    Type
REMARK                         _______ _______ _______ _____ _____    ______ ____
ROOT
ATOM      1  C   UNL     1       4.522  -1.372   0.330  0.00  0.00    +0.000 C 
ENDROOT
BRANCH   1   2
ATOM      2  C   UNL     1       5.085  -2.762   0.556  0.00  0.00    +0.000 C 
ATOM      3  C   UNL     1       6.581  -2.973   0.458  0.00  0.00    +0.000 C 
ATOM      4  C   UNL     1       5.672  -3.593  -0.563  0.00  0.00    +0.000 C 
ENDBRANCH   1   2
BRANCH   1   5
ATOM      5  N   UNL     1       3.057  -1.486   0.379  0.00  0.00    +0.000 NA
ATOM      6  H   UNL     1       2.767  -2.171  -0.316  0.00  0.00    +0.000 HD
BRANCH   5   8
ATOM      7  C   UNL     1       0.882  -0.361   0.145  0.00  0.00    +0.000 C 
ATOM      8  C   UNL     1       2.394  -0.208   0.094  0.00  0.00    +0.000 C 
ENDBRANCH   5   8
ENDBRANCH   1   5
BRANCH   1   9
ATOM      9  C   UNL     1       5.025  -0.415   1.379  0.00  0.00    +0.000 C 
ATOM     10  C   UNL     1       5.745   0.687   1.121  0.00  0.00    +0.000 C 
ENDBRANCH   1   9
TORSDOF 4
