REMARK  Name = ligand_946241
REMARK  6 active torsions:
REMARK  status: ('A' for Active; 'I' for Inactive)
REMARK    1  A    between atoms: C_1  and  C_2
REMARK    2  A    between atoms: C_2  and  N_3
REMARK    3  A    between atoms: C_2  and  C_7
REMARK    4  A    between atoms: N_3  and  C_4
REMARK    5  A    between atoms: C_4  and  C_5
REMARK    6  A    between atoms: C_7  and  C_8
REMARK                            x       y       z     vdW  Elec       q    Type
REMARK                         _______ _______ _______ _____ _____    ______ ____
ROOT
ATOM      1  C   UNL     1       1.036  -0.107   0.074  0.00  0.00    +0.000 C 
ATOM      2  C   UNL     1       2.565  -0.005  -0.001  0.00  0.00    +0.000 C 
ENDROOT
BRANCH   2   3
ATOM      3  C   UNL     1       3.051   1.340   0.515  0.00  0.00    +0.000 C 
ATOM      4  C   UNL     1       2.647   2.594  -0.213  0.00  0.00    +0.000 C 
ATOM      5  C   UNL     1       3.871   1.422   1.578  0.00  0.00    +0.000 C 
ENDBRANCH   2   3
BRANCH   2   6
ATOM      6  N   UNL     1       3.004  -0.284  -1.374  0.00  0.00    +0.000 NA
ATOM      7  H   UNL     1       2.614   0.408  -2.008  0.00  0.00    +0.000 HD
BRANCH   6   8
ATOM      8  C   UNL     1       4.458  -0.287  -1.497  0.00  0.00    +0.000 C 
BRANCH   8   9
ATOM      9  C   UNL     1       4.847  -0.575  -2.917  0.00  0.00    +0.000 C 
ATOM     10  C   UNL     1       5.538   0.268  -3.691  0.00  0.00    +0.000 C 
ENDBRANCH   8   9
ENDBRANCH   6   8
ENDBRANCH   2   6
TORSDOF 4
