REMARK  Name = ligand_946371
REMARK  7 active torsions:
REMARK  status: ('A' for Active; 'I' for Inactive)
REMARK    1  A    between atoms: C_1  and  C_2
REMARK    2  A    between atoms: C_2  and  N_3
REMARK    3  A    between atoms: N_3  and  C_4
REMARK    4  A    between atoms: C_4  and  C_5
REMARK    5  A    between atoms: C_5  and  C_6
REMARK    6  A    between atoms: C_5  and  C_7
REMARK    7  A    between atoms: C_8  and  C_9
REMARK                            x       y       z     vdW  Elec       q    Type
REMARK                         _______ _______ _______ _____ _____    ______ ____
ROOT
ATOM      1  C   UNL     1       4.522   0.792  -1.043  0.00  0.00    +0.000 C 
ENDROOT
BRANCH   1   2
ATOM      2  N   UNL     1       3.056   0.732  -1.019  0.00  0.00    +0.000 NA
ATOM      3  H   UNL     1       2.675   1.667  -0.882  0.00  0.00    +0.000 HD
BRANCH   2   5
ATOM      4  C   UNL     1       1.048  -0.145   0.029  0.00  0.00    +0.000 C 
ATOM      5  C   UNL     1       2.570  -0.138   0.049  0.00  0.00    +0.000 C 
ENDBRANCH   2   5
ENDBRANCH   1   2
BRANCH   1   6
ATOM      6  C   UNL     1       5.044   1.703  -2.179  0.00  0.00    +0.000 C 
ATOM      7  C   UNL     1       4.575   3.154  -2.022  0.00  0.00    +0.000 C 
BRANCH   6   8
ATOM      8  C   UNL     1       6.558   1.679  -2.222  0.00  0.00    +0.000 C 
ATOM      9  C   UNL     1       7.270   1.274  -3.288  0.00  0.00    +0.000 C 
ATOM     10  C   UNL     1       8.763   1.277  -3.346  0.00  0.00    +0.000 C 
ENDBRANCH   6   8
ENDBRANCH   1   6
TORSDOF 4
