REMARK  Name = ligand_94662
REMARK  4 active torsions:
REMARK  status: ('A' for Active; 'I' for Inactive)
REMARK    1  A    between atoms: C_1  and  C_2
REMARK    2  A    between atoms: C_2  and  C_3
REMARK    3  A    between atoms: C_2  and  C_7
REMARK    4  A    between atoms: C_4  and  C_5
REMARK                            x       y       z     vdW  Elec       q    Type
REMARK                         _______ _______ _______ _____ _____    ______ ____
ROOT
ATOM      1  C   UNL     1       1.104  -0.097  -0.084  0.00  0.00    +0.000 C 
ATOM      2  C   UNL     1       2.633  -0.008  -0.024  0.00  0.00    +0.000 C 
ENDROOT
BRANCH   2   3
ATOM      3  C   UNL     1       3.111  -0.351   1.371  0.00  0.00    +0.000 C 
ATOM      4  C   UNL     1       4.584  -0.374   1.703  0.00  0.00    +0.000 C 
ATOM      5  C   UNL     1       3.817  -1.662   1.629  0.00  0.00    +0.000 C 
ENDBRANCH   2   3
BRANCH   2   6
ATOM      6  C   UNL     1       3.079   1.363  -0.475  0.00  0.00    +0.000 C 
ATOM      7  C   UNL     1       3.876   1.573  -1.532  0.00  0.00    +0.000 C 
BRANCH   7   8
ATOM      8  C   UNL     1       4.281   2.883  -1.906  0.00  0.00    +0.000 C 
ATOM      9  C   UNL     1       4.632   3.984  -2.228  0.00  0.00    +0.000 C 
ENDBRANCH   7   8
ENDBRANCH   2   6
TORSDOF 3
