REMARK  Name = ligand_946862
REMARK  6 active torsions:
REMARK  status: ('A' for Active; 'I' for Inactive)
REMARK    1  A    between atoms: C_1  and  C_2
REMARK    2  A    between atoms: C_2  and  N_3
REMARK    3  A    between atoms: N_3  and  C_4
REMARK    4  A    between atoms: C_4  and  C_5
REMARK    5  A    between atoms: C_4  and  C_6
REMARK    6  A    between atoms: C_6  and  N_7
REMARK                            x       y       z     vdW  Elec       q    Type
REMARK                         _______ _______ _______ _____ _____    ______ ____
ROOT
ATOM      1  C   UNL     1       4.529  -0.992   1.040  0.00  0.00    +0.000 C 
ATOM      2  C   UNL     1       5.108   0.374   1.418  0.00  0.00    +0.000 C 
ENDROOT
BRANCH   1   3
ATOM      3  N   UNL     1       3.048  -0.993   1.017  0.00  0.00    +0.000 NA
ATOM      4  H   UNL     1       2.746  -1.942   0.789  0.00  0.00    +0.000 HD
BRANCH   3   6
ATOM      5  C   UNL     1       0.968  -0.160   0.040  0.00  0.00    +0.000 C 
ATOM      6  C   UNL     1       2.487  -0.077   0.023  0.00  0.00    +0.000 C 
ENDBRANCH   3   6
ENDBRANCH   1   3
BRANCH   1   7
ATOM      7  C   UNL     1       5.042  -2.047   2.056  0.00  0.00    +0.000 C 
BRANCH   7   8
ATOM      8  N   UNL     1       4.603  -3.387   1.703  0.00  0.00    +0.000 N 
ATOM      9  C   UNL     1       5.312  -4.236   0.925  0.00  0.00    +0.000 C 
ATOM     10  N   UNL     1       4.950  -5.424   0.605  0.00  0.00    +0.000 NA
ATOM     11  H   UNL     1       3.691  -3.661   2.047  0.00  0.00    +0.000 HD
ATOM     12  H   UNL     1       4.046  -5.636   1.033  0.00  0.00    +0.000 HD
ENDBRANCH   7   8
ENDBRANCH   1   7
TORSDOF 4
