REMARK  Name = ligand_94743
REMARK  4 active torsions:
REMARK  status: ('A' for Active; 'I' for Inactive)
REMARK    1  A    between atoms: C_1  and  C_2
REMARK    2  A    between atoms: C_2  and  C_3
REMARK    3  A    between atoms: C_4  and  C_5
REMARK    4  A    between atoms: C_6  and  C_7
REMARK                            x       y       z     vdW  Elec       q    Type
REMARK                         _______ _______ _______ _____ _____    ______ ____
ROOT
ATOM      1  C   UNL     1       3.859  -2.177  -3.293  0.00  0.00    +0.000 C 
ATOM      2  C   UNL     1       3.072  -2.891  -4.114  0.00  0.00    +0.000 C 
ENDROOT
BRANCH   2   3
ATOM      3  C   UNL     1       3.552  -3.605  -5.315  0.00  0.00    +0.000 C 
ATOM      4  C   UNL     1       2.861  -4.852  -5.804  0.00  0.00    +0.000 C 
ATOM      5  C   UNL     1       4.212  -4.952  -5.156  0.00  0.00    +0.000 C 
ENDBRANCH   2   3
BRANCH   1   7
ATOM      6  C   UNL     1       2.950  -0.750  -1.145  0.00  0.00    +0.000 C 
ATOM      7  C   UNL     1       3.385  -1.425  -2.172  0.00  0.00    +0.000 C 
BRANCH   6   9
ATOM      8  C   UNL     1       0.925   0.046   0.065  0.00  0.00    +0.000 C 
ATOM      9  C   UNL     1       2.444   0.038   0.052  0.00  0.00    +0.000 C 
ENDBRANCH   6   9
ENDBRANCH   1   7
TORSDOF 3
