REMARK  Name = ligand_947653
REMARK  2 active torsions:
REMARK  status: ('A' for Active; 'I' for Inactive)
REMARK    1  A    between atoms: C_1  and  C_2
REMARK    2  A    between atoms: C_2  and  N_3
REMARK                            x       y       z     vdW  Elec       q    Type
REMARK                         _______ _______ _______ _____ _____    ______ ____
ROOT
ATOM      1  N   UNL     1       3.270   1.089   0.975  0.00  0.00    +0.000 N 
ATOM      2  C   UNL     1       4.566   1.494   1.124  0.00  0.00    +0.000 C 
ATOM      3  N   UNL     1       5.573   0.779   0.754  0.00  0.00    +0.000 NA
ATOM      4  N   UNL     1       4.640   2.735   1.714  0.00  0.00    +0.000 N 
ATOM      5  C   UNL     1       5.877   3.026   2.414  0.00  0.00    +0.000 C 
ATOM      6  C   UNL     1       6.188   4.126   1.416  0.00  0.00    +0.000 C 
ATOM      7  C   UNL     1       4.849   3.816   0.772  0.00  0.00    +0.000 C 
ATOM      8  H   UNL     1       2.602   1.781   1.293  0.00  0.00    +0.000 HD
ATOM      9  H   UNL     1       5.214  -0.074   0.322  0.00  0.00    +0.000 HD
ENDROOT
BRANCH   1  11
ATOM     10  C   UNL     1       1.487  -0.382   1.784  0.00  0.00    +0.000 C 
ATOM     11  C   UNL     1       2.839  -0.293   1.091  0.00  0.00    +0.000 C 
ENDBRANCH   1  11
TORSDOF 1
