REMARK  Name = ligand_947688
REMARK  6 active torsions:
REMARK  status: ('A' for Active; 'I' for Inactive)
REMARK    1  A    between atoms: C_1  and  C_2
REMARK    2  A    between atoms: C_2  and  N_3
REMARK    3  A    between atoms: C_2  and  C_4
REMARK    4  A    between atoms: C_4  and  N_5
REMARK    5  A    between atoms: C_4  and  C_8
REMARK    6  A    between atoms: N_5  and  N_6
REMARK                            x       y       z     vdW  Elec       q    Type
REMARK                         _______ _______ _______ _____ _____    ______ ____
ROOT
ATOM      1  C   UNL     1       3.008  -1.039   0.838  0.00  0.00    +0.000 C 
ENDROOT
BRANCH   1   3
ATOM      2  C   UNL     1       2.837  -0.052  -1.561  0.00  0.00    +0.000 C 
ATOM      3  C   UNL     1       2.452   0.099  -0.084  0.00  0.00    +0.000 C 
BRANCH   3   4
ATOM      4  N   UNL     1       0.983   0.228   0.007  0.00  0.00    +0.000 NA
ATOM      5  H   UNL     1       0.529  -0.622  -0.307  0.00  0.00    +0.000 HD
ATOM      6  H   UNL     1       0.662   0.974  -0.613  0.00  0.00    +0.000 HD
ENDBRANCH   3   4
ENDBRANCH   1   3
BRANCH   1   7
ATOM      7  N   UNL     1       2.571  -2.401   0.465  0.00  0.00    +0.000 N 
ATOM      8  H   UNL     1       1.789  -2.367  -0.183  0.00  0.00    +0.000 HD
BRANCH   7   9
ATOM      9  N   UNL     1       2.406  -3.286   1.484  0.00  0.00    +0.000 NA
ATOM     10  C   UNL     1       1.983  -4.448   1.123  0.00  0.00    +0.000 C 
ENDBRANCH   7   9
ENDBRANCH   1   7
BRANCH   1  11
ATOM     11  C   UNL     1       4.528  -1.039   0.838  0.00  0.00    +0.000 C 
ATOM     12  C   UNL     1       5.832  -1.039   0.838  0.00  0.00    +0.000 C 
ENDBRANCH   1  11
TORSDOF 5
