REMARK  Name = ligand_948015
REMARK  3 active torsions:
REMARK  status: ('A' for Active; 'I' for Inactive)
REMARK    1  A    between atoms: C_1  and  C_2
REMARK    2  A    between atoms: C_2  and  N_3
REMARK    3  A    between atoms: N_3  and  N_4
REMARK                            x       y       z     vdW  Elec       q    Type
REMARK                         _______ _______ _______ _____ _____    ______ ____
ROOT
ATOM      1  N   UNL     1       4.407  -1.781  -0.098  0.00  0.00    +0.000 NA
ATOM      2  C   UNL     1       4.733  -2.997  -0.407  0.00  0.00    +0.000 C 
ATOM      3  N   UNL     1       6.015  -3.349  -0.738  0.00  0.00    +0.000 N 
ATOM      4  C   UNL     1       6.143  -4.776  -0.880  0.00  0.00    +0.000 C 
ATOM      5  C   UNL     1       4.713  -5.204  -0.719  0.00  0.00    +0.000 C 
ATOM      6  C   UNL     1       3.866  -4.199  -0.447  0.00  0.00    +0.000 C 
ATOM      7  H   UNL     1       6.763  -2.787  -0.358  0.00  0.00    +0.000 HD
ENDROOT
BRANCH   1   8
ATOM      8  N   UNL     1       3.088  -1.553   0.127  0.00  0.00    +0.000 N 
ATOM      9  H   UNL     1       2.533  -1.857  -0.676  0.00  0.00    +0.000 HD
BRANCH   8  11
ATOM     10  C   UNL     1       1.224  -0.047   0.592  0.00  0.00    +0.000 C 
ATOM     11  C   UNL     1       2.732  -0.169   0.443  0.00  0.00    +0.000 C 
ENDBRANCH   8  11
ENDBRANCH   1   8
TORSDOF 2
