REMARK  Name = ligand_948559
REMARK  5 active torsions:
REMARK  status: ('A' for Active; 'I' for Inactive)
REMARK    1  A    between atoms: C_1  and  C_2
REMARK    2  A    between atoms: C_2  and  N_3
REMARK    3  A    between atoms: N_3  and  N_4
REMARK    4  A    between atoms: C_5  and  C_7
REMARK    5  A    between atoms: C_7  and  C_8
REMARK                            x       y       z     vdW  Elec       q    Type
REMARK                         _______ _______ _______ _____ _____    ______ ____
ROOT
ATOM      1  N   UNL     1       4.501  -1.385   0.291  0.00  0.00    +0.000 N 
ATOM      2  C   UNL     1       5.126  -2.522   0.780  0.00  0.00    +0.000 C 
ATOM      3  N   UNL     1       4.471  -3.531   1.271  0.00  0.00    +0.000 NA
ATOM      4  H   UNL     1       5.037  -0.521   0.397  0.00  0.00    +0.000 HD
ATOM      5  H   UNL     1       3.487  -3.234   1.275  0.00  0.00    +0.000 HD
ENDROOT
BRANCH   1   6
ATOM      6  N   UNL     1       3.089  -1.327   0.416  0.00  0.00    +0.000 NA
ATOM      7  H   UNL     1       2.676  -2.060  -0.171  0.00  0.00    +0.000 HD
BRANCH   6   9
ATOM      8  C   UNL     1       1.092   0.015  -0.003  0.00  0.00    +0.000 C 
ATOM      9  C   UNL     1       2.610  -0.034  -0.087  0.00  0.00    +0.000 C 
ENDBRANCH   6   9
ENDBRANCH   1   6
BRANCH   2  10
ATOM     10  C   UNL     1       6.645  -2.605   0.707  0.00  0.00    +0.000 C 
BRANCH  10  11
ATOM     11  C   UNL     1       7.297  -1.539   1.484  0.00  0.00    +0.000 C 
ATOM     12  C   UNL     1       7.850  -0.679   2.117  0.00  0.00    +0.000 C 
ENDBRANCH  10  11
ENDBRANCH   2  10
TORSDOF 4
