REMARK  Name = ligand_948677
REMARK  3 active torsions:
REMARK  status: ('A' for Active; 'I' for Inactive)
REMARK    1  A    between atoms: C_1  and  N_2
REMARK    2  A    between atoms: C_6  and  N_7
REMARK    3  A    between atoms: C_8  and  N_9
REMARK                            x       y       z     vdW  Elec       q    Type
REMARK                         _______ _______ _______ _____ _____    ______ ____
ROOT
ATOM      1  C   UNL     1       1.227   0.008   0.030  0.00  0.00    +0.000 C 
ATOM      2  N   UNL     1       2.681   0.007  -0.058  0.00  0.00    +0.000 NA
ATOM      3  C   UNL     1       3.255   0.977  -1.087  0.00  0.00    +0.000 C 
ATOM      4  C   UNL     1       2.832  -0.049  -2.183  0.00  0.00    +0.000 C 
ATOM      5  C   UNL     1       3.261  -1.004  -1.040  0.00  0.00    +0.000 C 
ATOM      6  C   UNL     1       4.794  -0.785  -0.947  0.00  0.00    +0.000 C 
ATOM      7  C   UNL     1       4.783   0.782  -0.936  0.00  0.00    +0.000 C 
ENDROOT
BRANCH   6   8
ATOM      8  N   UNL     1       5.352  -1.377   0.273  0.00  0.00    +0.000 NA
ATOM      9  H   UNL     1       4.789  -1.041   1.059  0.00  0.00    +0.000 HD
ATOM     10  H   UNL     1       6.286  -1.003   0.429  0.00  0.00    +0.000 HD
ENDBRANCH   6   8
BRANCH   7  11
ATOM     11  N   UNL     1       5.557   1.406  -2.013  0.00  0.00    +0.000 NA
ATOM     12  H   UNL     1       5.295   1.011  -2.915  0.00  0.00    +0.000 HD
ATOM     13  H   UNL     1       6.541   1.163  -1.891  0.00  0.00    +0.000 HD
ENDBRANCH   7  11
TORSDOF 2
