REMARK  Name = ligand_948732
REMARK  1 active torsions:
REMARK  status: ('A' for Active; 'I' for Inactive)
REMARK    1  A    between atoms: C_1  and  N_2
REMARK                            x       y       z     vdW  Elec       q    Type
REMARK                         _______ _______ _______ _____ _____    ______ ____
ROOT
ATOM      1  C   UNL     1       0.894   1.110  -0.118  0.00  0.00    +0.000 C 
ATOM      2  N   UNL     1       2.196   1.197  -0.786  0.00  0.00    +0.000 NA
ATOM      3  C   UNL     1       2.151   1.317  -2.210  0.00  0.00    +0.000 C 
ATOM      4  C   UNL     1       2.821   0.889  -3.477  0.00  0.00    +0.000 C 
ATOM      5  C   UNL     1       2.355  -0.577  -3.706  0.00  0.00    +0.000 C 
ATOM      6  C   UNL     1       3.411  -1.711  -3.701  0.00  0.00    +0.000 C 
ATOM      7  C   UNL     1       2.618  -2.395  -2.571  0.00  0.00    +0.000 C 
ATOM      8  C   UNL     1       1.943  -1.049  -2.268  0.00  0.00    +0.000 C 
ATOM      9  C   UNL     1       2.553  -0.041  -1.329  0.00  0.00    +0.000 C 
ENDROOT
TORSDOF 0
