REMARK  Name = ligand_948877
REMARK  2 active torsions:
REMARK  status: ('A' for Active; 'I' for Inactive)
REMARK    1  A    between atoms: C_1  and  N_2
REMARK    2  A    between atoms: C_6  and  C_7
REMARK                            x       y       z     vdW  Elec       q    Type
REMARK                         _______ _______ _______ _____ _____    ______ ____
ROOT
ATOM      1  C   UNL     1       0.751   0.049   0.089  0.00  0.00    +0.000 C 
ATOM      2  N   UNL     1       2.215   0.073   0.152  0.00  0.00    +0.000 NA
ATOM      3  C   UNL     1       2.971   0.586  -0.950  0.00  0.00    +0.000 C 
ATOM      4  C   UNL     1       2.514   0.647  -2.408  0.00  0.00    +0.000 C 
ATOM      5  C   UNL     1       2.927  -0.731  -2.910  0.00  0.00    +0.000 C 
ATOM      6  C   UNL     1       2.458  -1.658  -1.769  0.00  0.00    +0.000 C 
ATOM      7  C   UNL     1       2.947  -0.946  -0.556  0.00  0.00    +0.000 C 
ENDROOT
BRANCH   6   8
ATOM      8  C   UNL     1       2.941  -3.053  -2.132  0.00  0.00    +0.000 C 
ATOM      9  C   UNL     1       3.356  -4.249  -2.443  0.00  0.00    +0.000 C 
ENDBRANCH   6   8
TORSDOF 1
