REMARK  Name = ligand_949378
REMARK  1 active torsions:
REMARK  status: ('A' for Active; 'I' for Inactive)
REMARK    1  A    between atoms: C_1  and  N_2
REMARK                            x       y       z     vdW  Elec       q    Type
REMARK                         _______ _______ _______ _____ _____    ______ ____
ROOT
ATOM      1  C   UNL     1       1.696   0.384   1.493  0.00  0.00    +0.000 C 
ATOM      2  N   UNL     1       2.512  -0.664   2.105  0.00  0.00    +0.000 NA
ATOM      3  C   UNL     1       3.696  -0.082   2.809  0.00  0.00    +0.000 C 
ATOM      4  C   UNL     1       4.868  -0.362   1.949  0.00  0.00    +0.000 C 
ATOM      5  C   UNL     1       6.160  -0.043   1.830  0.00  0.00    +0.000 C 
ATOM      6  C   UNL     1       6.691  -0.688   0.569  0.00  0.00    +0.000 C 
ATOM      7  C   UNL     1       5.476  -1.401   0.020  0.00  0.00    +0.000 C 
ATOM      8  C   UNL     1       4.465  -1.217   0.875  0.00  0.00    +0.000 C 
ATOM      9  C   UNL     1       3.045  -1.582   1.056  0.00  0.00    +0.000 C 
ENDROOT
TORSDOF 0
