REMARK  Name = ligand_949470
REMARK  2 active torsions:
REMARK  status: ('A' for Active; 'I' for Inactive)
REMARK    1  A    between atoms: C_1  and  N_2
REMARK    2  A    between atoms: C_7  and  C_8
REMARK                            x       y       z     vdW  Elec       q    Type
REMARK                         _______ _______ _______ _____ _____    ______ ____
ROOT
ATOM      1  C   UNL     1       0.705   0.042  -0.230  0.00  0.00    +0.000 C 
ATOM      2  N   UNL     1       2.122  -0.092   0.065  0.00  0.00    +0.000 NA
ATOM      3  C   UNL     1       2.930   1.000  -0.481  0.00  0.00    +0.000 C 
ATOM      4  C   UNL     1       4.361   0.489  -0.337  0.00  0.00    +0.000 C 
ATOM      5  C   UNL     1       5.299   0.492  -1.553  0.00  0.00    +0.000 C 
ATOM      6  N   UNL     1       4.768  -0.827  -1.944  0.00  0.00    +0.000 NA
ATOM      7  C   UNL     1       4.233  -1.030  -0.568  0.00  0.00    +0.000 C 
ATOM      8  C   UNL     1       5.080  -1.971   0.267  0.00  0.00    +0.000 C 
ATOM      9  C   UNL     1       2.717  -1.305  -0.516  0.00  0.00    +0.000 C 
ATOM     10  H   UNL     1       5.481  -1.494  -2.235  0.00  0.00    +0.000 HD
ENDROOT
TORSDOF 0
