REMARK  Name = ligand_950069
REMARK  3 active torsions:
REMARK  status: ('A' for Active; 'I' for Inactive)
REMARK    1  A    between atoms: C_1  and  N_2
REMARK    2  A    between atoms: C_4  and  C_5
REMARK    3  A    between atoms: C_7  and  C_8
REMARK                            x       y       z     vdW  Elec       q    Type
REMARK                         _______ _______ _______ _____ _____    ______ ____
ROOT
ATOM      1  C   UNL     1       1.290   0.157   0.484  0.00  0.00    +0.000 C 
ATOM      2  N   UNL     1       2.714   0.124   0.134  0.00  0.00    +0.000 NA
ATOM      3  C   UNL     1       3.037   1.164  -0.895  0.00  0.00    +0.000 C 
ATOM      4  C   UNL     1       2.895   0.474  -2.221  0.00  0.00    +0.000 C 
ATOM      5  C   UNL     1       2.912   1.225  -3.500  0.00  0.00    +0.000 C 
ATOM      6  C   UNL     1       2.717  -0.846  -2.017  0.00  0.00    +0.000 C 
ATOM      7  C   UNL     1       2.991  -1.148  -0.582  0.00  0.00    +0.000 C 
ENDROOT
BRANCH   7   8
ATOM      8  C   UNL     1       2.196  -1.795  -2.932  0.00  0.00    +0.000 C 
ATOM      9  N   UNL     1       1.660  -2.558  -3.619  0.00  0.00    +0.000 NA
ENDBRANCH   7   8
TORSDOF 1
