REMARK  Name = ligand_950527
REMARK  3 active torsions:
REMARK  status: ('A' for Active; 'I' for Inactive)
REMARK    1  A    between atoms: C_1  and  N_2
REMARK    2  A    between atoms: C_4  and  C_5
REMARK    3  A    between atoms: C_4  and  N_6
REMARK                            x       y       z     vdW  Elec       q    Type
REMARK                         _______ _______ _______ _____ _____    ______ ____
ROOT
ATOM      1  C   UNL     1       1.306   0.044   0.347  0.00  0.00    +0.000 C 
ATOM      2  N   UNL     1       2.759   0.002   0.361  0.00  0.00    +0.000 N 
ATOM      3  C   UNL     1       3.400  -1.162  -0.242  0.00  0.00    +0.000 C 
ATOM      4  C   UNL     1       4.826  -0.667  -0.627  0.00  0.00    +0.000 C 
ATOM      5  C   UNL     1       5.853  -0.988   0.473  0.00  0.00    +0.000 C 
ATOM      6  C   UNL     1       4.668   0.859  -0.775  0.00  0.00    +0.000 C 
ATOM      7  C   UNL     1       3.463   1.148   0.083  0.00  0.00    +0.000 C 
ATOM      8  N   UNL     1       3.130   2.339   0.443  0.00  0.00    +0.000 NA
ATOM      9  H   UNL     1       3.815   3.019   0.098  0.00  0.00    +0.000 HD
ENDROOT
BRANCH   4  10
ATOM     10  N   UNL     1       5.302  -1.275  -1.882  0.00  0.00    +0.000 NA
ATOM     11  H   UNL     1       5.439  -2.275  -1.755  0.00  0.00    +0.000 HD
ATOM     12  H   UNL     1       6.212  -0.888  -2.125  0.00  0.00    +0.000 HD
ENDBRANCH   4  10
TORSDOF 1
