REMARK  Name = ligand_950740
REMARK  3 active torsions:
REMARK  status: ('A' for Active; 'I' for Inactive)
REMARK    1  A    between atoms: C_1  and  N_2
REMARK    2  A    between atoms: C_6  and  C_7
REMARK    3  A    between atoms: C_6  and  C_8
REMARK                            x       y       z     vdW  Elec       q    Type
REMARK                         _______ _______ _______ _____ _____    ______ ____
ROOT
ATOM      1  C   UNL     1       1.120   0.373   0.438  0.00  0.00    +0.000 C 
ATOM      2  N   UNL     1       2.520   0.156   0.093  0.00  0.00    +0.000 NA
ATOM      3  C   UNL     1       2.997   1.104  -0.925  0.00  0.00    +0.000 C 
ATOM      4  C   UNL     1       2.637   0.738  -2.383  0.00  0.00    +0.000 C 
ATOM      5  N   UNL     1       2.998  -0.641  -2.767  0.00  0.00    +0.000 NA
ATOM      6  C   UNL     1       2.469  -1.630  -1.795  0.00  0.00    +0.000 C 
ATOM      7  C   UNL     1       0.958  -1.832  -2.016  0.00  0.00    +0.000 C 
ATOM      8  C   UNL     1       3.152  -2.982  -2.091  0.00  0.00    +0.000 C 
ATOM      9  C   UNL     1       2.813  -1.226  -0.321  0.00  0.00    +0.000 C 
ATOM     10  H   UNL     1       4.018  -0.700  -2.747  0.00  0.00    +0.000 HD
ENDROOT
TORSDOF 0
