REMARK  Name = ligand_951183
REMARK  3 active torsions:
REMARK  status: ('A' for Active; 'I' for Inactive)
REMARK    1  A    between atoms: C_1  and  N_2
REMARK    2  A    between atoms: C_4  and  C_5
REMARK    3  A    between atoms: C_7  and  C_8
REMARK                            x       y       z     vdW  Elec       q    Type
REMARK                         _______ _______ _______ _____ _____    ______ ____
ROOT
ATOM      1  C   UNL     1       1.118   0.048  -0.091  0.00  0.00    +0.000 C 
ATOM      2  N   UNL     1       2.557  -0.044  -0.160  0.00  0.00    +0.000 N 
ATOM      3  N   UNL     1       3.236  -1.177   0.094  0.00  0.00    +0.000 NA
ATOM      4  C   UNL     1       4.447  -0.795   0.353  0.00  0.00    +0.000 C 
ATOM      5  C   UNL     1       5.575  -1.746   0.567  0.00  0.00    +0.000 C 
ATOM      6  C   UNL     1       4.642   0.685   0.488  0.00  0.00    +0.000 C 
ATOM      7  C   UNL     1       3.326   1.192  -0.102  0.00  0.00    +0.000 C 
ENDROOT
BRANCH   7   8
ATOM      8  C   UNL     1       3.532   1.751  -1.487  0.00  0.00    +0.000 C 
ATOM      9  C   UNL     1       3.286   3.016  -1.848  0.00  0.00    +0.000 C 
ENDBRANCH   7   8
TORSDOF 1
