REMARK  Name = ligand_951111
REMARK  2 active torsions:
REMARK  status: ('A' for Active; 'I' for Inactive)
REMARK    1  A    between atoms: C_1  and  N_2
REMARK    2  A    between atoms: C_6  and  C_7
REMARK                            x       y       z     vdW  Elec       q    Type
REMARK                         _______ _______ _______ _____ _____    ______ ____
ROOT
ATOM      1  C   UNL     1       1.218   0.057   0.138  0.00  0.00    +0.000 C 
ATOM      2  N   UNL     1       2.642   0.051   0.457  0.00  0.00    +0.000 N 
ATOM      3  N   UNL     1       3.264   1.249   0.719  0.00  0.00    +0.000 NA
ATOM      4  C   UNL     1       4.478   1.245   0.262  0.00  0.00    +0.000 C 
ATOM      5  C   UNL     1       4.823   0.057  -0.521  0.00  0.00    +0.000 C 
ATOM      6  C   UNL     1       4.762  -1.365  -0.030  0.00  0.00    +0.000 C 
ATOM      7  C   UNL     1       3.504  -0.680  -0.490  0.00  0.00    +0.000 C 
ENDROOT
BRANCH   6   8
ATOM      8  C   UNL     1       5.288  -2.372  -0.913  0.00  0.00    +0.000 C 
ATOM      9  C   UNL     1       5.673  -3.115  -1.768  0.00  0.00    +0.000 C 
ENDBRANCH   6   8
TORSDOF 1
