REMARK  Name = ligand_951636
REMARK  5 active torsions:
REMARK  status: ('A' for Active; 'I' for Inactive)
REMARK    1  A    between atoms: C_1  and  N_2
REMARK    2  A    between atoms: N_2  and  C_3
REMARK    3  A    between atoms: C_5  and  C_6
REMARK    4  A    between atoms: C_6  and  C_7
REMARK    5  A    between atoms: C_7  and  C_8
REMARK                            x       y       z     vdW  Elec       q    Type
REMARK                         _______ _______ _______ _____ _____    ______ ____
ROOT
ATOM      1  C   UNL     1       3.001  -1.061  -0.760  0.00  0.00    +0.000 C 
ATOM      2  C   UNL     1       2.117  -2.173  -1.256  0.00  0.00    +0.000 C 
ATOM      3  C   UNL     1       3.134  -2.446  -0.178  0.00  0.00    +0.000 C 
ENDROOT
BRANCH   1   5
ATOM      4  C   UNL     1       3.360   1.033   0.421  0.00  0.00    +0.000 C 
ATOM      5  N   UNL     1       2.389   0.025   0.014  0.00  0.00    +0.000 NA
ATOM      6  H   UNL     1       1.646   0.475  -0.520  0.00  0.00    +0.000 HD
ENDBRANCH   1   5
BRANCH   3   7
ATOM      7  C   UNL     1       2.664  -2.805   1.206  0.00  0.00    +0.000 C 
BRANCH   7   8
ATOM      8  C   UNL     1       3.773  -3.080   2.202  0.00  0.00    +0.000 C 
ATOM      9  C   UNL     1       4.292  -1.934   3.025  0.00  0.00    +0.000 C 
ATOM     10  C   UNL     1       4.258  -4.318   2.386  0.00  0.00    +0.000 C 
ENDBRANCH   7   8
ENDBRANCH   3   7
TORSDOF 3
