REMARK  Name = ligand_951769
REMARK  1 active torsions:
REMARK  status: ('A' for Active; 'I' for Inactive)
REMARK    1  A    between atoms: C_1  and  N_2
REMARK                            x       y       z     vdW  Elec       q    Type
REMARK                         _______ _______ _______ _____ _____    ______ ____
ROOT
ATOM      1  C   UNL     1       1.211   0.191  -0.527  0.00  0.00    +0.000 C 
ATOM      2  N   UNL     1       2.614   0.583  -0.455  0.00  0.00    +0.000 NA
ATOM      3  C   UNL     1       3.183   0.458   0.694  0.00  0.00    +0.000 C 
ATOM      4  C   UNL     1       4.660   0.719   0.835  0.00  0.00    +0.000 C 
ATOM      5  C   UNL     1       4.972   0.491   2.310  0.00  0.00    +0.000 C 
ATOM      6  C   UNL     1       4.832   1.665   3.309  0.00  0.00    +0.000 C 
ATOM      7  C   UNL     1       3.666   0.938   3.995  0.00  0.00    +0.000 C 
ATOM      8  C   UNL     1       3.663  -0.098   2.869  0.00  0.00    +0.000 C 
ATOM      9  N   UNL     1       2.629   0.093   1.894  0.00  0.00    +0.000 N 
ATOM     10  H   UNL     1       1.838   0.664   2.169  0.00  0.00    +0.000 HD
ENDROOT
TORSDOF 0
