REMARK  Name = ligand_951794
REMARK  3 active torsions:
REMARK  status: ('A' for Active; 'I' for Inactive)
REMARK    1  A    between atoms: C_1  and  N_2
REMARK    2  A    between atoms: N_2  and  C_3
REMARK    3  A    between atoms: C_6  and  N_7
REMARK                            x       y       z     vdW  Elec       q    Type
REMARK                         _______ _______ _______ _____ _____    ______ ____
ROOT
ATOM      1  C   UNL     1       3.246   1.057  -0.228  0.00  0.00    +0.000 C 
ATOM      2  C   UNL     1       3.773   1.229   1.219  0.00  0.00    +0.000 C 
ATOM      3  C   UNL     1       2.810   2.188   1.866  0.00  0.00    +0.000 C 
ATOM      4  C   UNL     1       2.929   3.684   1.805  0.00  0.00    +0.000 C 
ATOM      5  C   UNL     1       2.120   2.951   0.770  0.00  0.00    +0.000 C 
ATOM      6  C   UNL     1       2.647   2.448  -0.544  0.00  0.00    +0.000 C 
ENDROOT
BRANCH   1   8
ATOM      7  C   UNL     1       1.810  -0.376  -1.595  0.00  0.00    +0.000 C 
ATOM      8  N   UNL     1       2.254  -0.035  -0.250  0.00  0.00    +0.000 NA
ATOM      9  H   UNL     1       2.669  -0.866   0.172  0.00  0.00    +0.000 HD
ENDBRANCH   1   8
BRANCH   4  10
ATOM     10  N   UNL     1       4.193   4.337   1.484  0.00  0.00    +0.000 NA
ATOM     11  H   UNL     1       4.717   3.838   0.770  0.00  0.00    +0.000 HD
ATOM     12  H   UNL     1       4.795   4.365   2.306  0.00  0.00    +0.000 HD
ENDBRANCH   4  10
TORSDOF 2
