REMARK  Name = ligand_952072
REMARK  4 active torsions:
REMARK  status: ('A' for Active; 'I' for Inactive)
REMARK    1  A    between atoms: C_1  and  N_2
REMARK    2  A    between atoms: N_2  and  C_3
REMARK    3  A    between atoms: C_7  and  C_8
REMARK    4  A    between atoms: C_7  and  N_9
REMARK                            x       y       z     vdW  Elec       q    Type
REMARK                         _______ _______ _______ _____ _____    ______ ____
ROOT
ATOM      1  C   UNL     1       3.048  -1.347  -0.238  0.00  0.00    +0.000 C 
ATOM      2  C   UNL     1       2.093  -2.556  -0.207  0.00  0.00    +0.000 C 
ATOM      3  C   UNL     1       2.914  -3.739   0.317  0.00  0.00    +0.000 C 
ATOM      4  C   UNL     1       4.312  -3.199   0.608  0.00  0.00    +0.000 C 
ATOM      5  C   UNL     1       4.115  -1.697   0.844  0.00  0.00    +0.000 C 
ATOM      6  C   UNL     1       5.413  -0.909   0.650  0.00  0.00    +0.000 C 
ENDROOT
BRANCH   1   8
ATOM      7  C   UNL     1       1.456   0.329  -1.024  0.00  0.00    +0.000 C 
ATOM      8  N   UNL     1       2.404  -0.050   0.011  0.00  0.00    +0.000 NA
ATOM      9  H   UNL     1       1.932  -0.073   0.913  0.00  0.00    +0.000 HD
ENDBRANCH   1   8
BRANCH   5  10
ATOM     10  N   UNL     1       3.637  -1.459   2.221  0.00  0.00    +0.000 NA
ATOM     11  H   UNL     1       2.709  -1.857   2.343  0.00  0.00    +0.000 HD
ATOM     12  H   UNL     1       3.531  -0.450   2.344  0.00  0.00    +0.000 HD
ENDBRANCH   5  10
TORSDOF 2
