REMARK  Name = ligand_95217
REMARK  5 active torsions:
REMARK  status: ('A' for Active; 'I' for Inactive)
REMARK    1  A    between atoms: C_1  and  C_2
REMARK    2  A    between atoms: C_2  and  C_4
REMARK    3  A    between atoms: C_4  and  C_5
REMARK    4  A    between atoms: C_5  and  C_6
REMARK    5  A    between atoms: C_5  and  C_8
REMARK                            x       y       z     vdW  Elec       q    Type
REMARK                         _______ _______ _______ _____ _____    ______ ____
ROOT
ATOM      1  C   UNL     1       4.849  -0.417  -1.022  0.00  0.00    +0.000 C 
ENDROOT
BRANCH   1   2
ATOM      2  C   UNL     1       5.476  -1.037  -2.225  0.00  0.00    +0.000 C 
ATOM      3  C   UNL     1       6.019  -1.492  -3.202  0.00  0.00    +0.000 C 
ENDBRANCH   1   2
BRANCH   1   4
ATOM      4  C   UNL     1       5.394   0.991  -0.849  0.00  0.00    +0.000 C 
ATOM      5  C   UNL     1       5.861   2.199  -0.700  0.00  0.00    +0.000 C 
ENDBRANCH   1   4
BRANCH   1   6
ATOM      6  C   UNL     1       3.316  -0.432  -1.168  0.00  0.00    +0.000 C 
BRANCH   6   8
ATOM      7  C   UNL     1       2.775  -0.629   1.337  0.00  0.00    +0.000 C 
ATOM      8  C   UNL     1       2.557   0.088   0.035  0.00  0.00    +0.000 C 
ATOM      9  C   UNL     1       1.719   1.133  -0.051  0.00  0.00    +0.000 C 
ENDBRANCH   6   8
ENDBRANCH   1   6
TORSDOF 4
