REMARK  Name = ligand_9523
REMARK  3 active torsions:
REMARK  status: ('A' for Active; 'I' for Inactive)
REMARK    1  A    between atoms: C_1  and  C_2
REMARK    2  A    between atoms: C_2  and  C_3
REMARK    3  A    between atoms: C_8  and  C_9
REMARK                            x       y       z     vdW  Elec       q    Type
REMARK                         _______ _______ _______ _____ _____    ______ ____
ROOT
ATOM      1  C   UNL     1       2.998  -1.345   0.748  0.00  0.00    +0.000 C 
ATOM      2  C   UNL     1       2.495  -2.620   0.039  0.00  0.00    +0.000 C 
ATOM      3  C   UNL     1       3.067  -3.895   0.648  0.00  0.00    +0.000 C 
ATOM      4  C   UNL     1       4.586  -3.869   0.663  0.00  0.00    +0.000 C 
ATOM      5  C   UNL     1       5.102  -2.639   1.398  0.00  0.00    +0.000 C 
ATOM      6  C   UNL     1       4.552  -1.332   0.799  0.00  0.00    +0.000 C 
ATOM      7  C   UNL     1       5.111  -0.152   1.603  0.00  0.00    +0.000 C 
ENDROOT
BRANCH   1   9
ATOM      8  C   UNL     1       0.914   0.002   0.062  0.00  0.00    +0.000 C 
ATOM      9  C   UNL     1       2.436  -0.080   0.061  0.00  0.00    +0.000 C 
ENDBRANCH   1   9
TORSDOF 1
