REMARK  Name = ligand_953076
REMARK  2 active torsions:
REMARK  status: ('A' for Active; 'I' for Inactive)
REMARK    1  A    between atoms: C_1  and  N_2
REMARK    2  A    between atoms: C_5  and  C_8
REMARK                            x       y       z     vdW  Elec       q    Type
REMARK                         _______ _______ _______ _____ _____    ______ ____
ROOT
ATOM      1  C   UNL     1       1.230  -0.126  -0.019  0.00  0.00    +0.000 C 
ATOM      2  N   UNL     1       2.679  -0.032  -0.123  0.00  0.00    +0.000 NA
ATOM      3  C   UNL     1       3.166   0.906  -0.847  0.00  0.00    +0.000 C 
ATOM      4  N   UNL     1       4.514   1.105  -0.941  0.00  0.00    +0.000 N 
ATOM      5  C   UNL     1       4.788   2.441  -1.428  0.00  0.00    +0.000 C 
ATOM      6  C   UNL     1       3.421   2.813  -1.953  0.00  0.00    +0.000 C 
ATOM      7  C   UNL     1       2.454   1.942  -1.625  0.00  0.00    +0.000 C 
ATOM      8  H   UNL     1       5.089   0.696  -0.218  0.00  0.00    +0.000 HD
ENDROOT
BRANCH   5   9
ATOM      9  C   UNL     1       5.819   2.491  -2.477  0.00  0.00    +0.000 C 
ATOM     10  N   UNL     1       6.649   2.572  -3.288  0.00  0.00    +0.000 NA
ENDBRANCH   5   9
TORSDOF 1
