REMARK  Name = ligand_953031
REMARK  1 active torsions:
REMARK  status: ('A' for Active; 'I' for Inactive)
REMARK    1  A    between atoms: C_1  and  N_2
REMARK                            x       y       z     vdW  Elec       q    Type
REMARK                         _______ _______ _______ _____ _____    ______ ____
ROOT
ATOM      1  C   UNL     1       1.531   0.116   1.364  0.00  0.00    +0.000 C 
ATOM      2  N   UNL     1       2.332  -0.258   0.220  0.00  0.00    +0.000 N 
ATOM      3  C   UNL     1       2.916  -1.473   0.104  0.00  0.00    +0.000 C 
ATOM      4  N   UNL     1       3.203  -2.036  -1.031  0.00  0.00    +0.000 NA
ATOM      5  C   UNL     1       3.806  -3.333  -0.683  0.00  0.00    +0.000 C 
ATOM      6  C   UNL     1       5.344  -3.303  -0.688  0.00  0.00    +0.000 C 
ATOM      7  C   UNL     1       5.355  -3.330   0.852  0.00  0.00    +0.000 C 
ATOM      8  C   UNL     1       3.822  -3.367   0.865  0.00  0.00    +0.000 C 
ATOM      9  N   UNL     1       3.209  -2.133   1.259  0.00  0.00    +0.000 N 
ATOM     10  H   UNL     1       1.972   0.059  -0.675  0.00  0.00    +0.000 HD
ATOM     11  H   UNL     1       3.741  -1.562   1.905  0.00  0.00    +0.000 HD
ENDROOT
TORSDOF 0
