REMARK  Name = ligand_953183
REMARK  2 active torsions:
REMARK  status: ('A' for Active; 'I' for Inactive)
REMARK    1  A    between atoms: C_1  and  N_2
REMARK    2  A    between atoms: C_5  and  C_6
REMARK                            x       y       z     vdW  Elec       q    Type
REMARK                         _______ _______ _______ _____ _____    ______ ____
ROOT
ATOM      1  C   UNL     1       1.252   0.483   0.031  0.00  0.00    +0.000 C 
ATOM      2  N   UNL     1       2.455  -0.322   0.058  0.00  0.00    +0.000 N 
ATOM      3  C   UNL     1       3.034  -0.742  -1.108  0.00  0.00    +0.000 C 
ATOM      4  N   UNL     1       2.618  -0.396  -2.278  0.00  0.00    +0.000 NA
ATOM      5  C   UNL     1       3.361  -0.921  -3.446  0.00  0.00    +0.000 C 
ATOM      6  C   UNL     1       4.159   0.227  -4.060  0.00  0.00    +0.000 C 
ATOM      7  C   UNL     1       4.284  -2.074  -3.139  0.00  0.00    +0.000 C 
ATOM      8  C   UNL     1       4.610  -2.344  -1.873  0.00  0.00    +0.000 C 
ATOM      9  N   UNL     1       4.075  -1.596  -0.863  0.00  0.00    +0.000 N 
ATOM     10  H   UNL     1       3.133   0.003   0.735  0.00  0.00    +0.000 HD
ATOM     11  H   UNL     1       4.115  -2.001   0.062  0.00  0.00    +0.000 HD
ENDROOT
TORSDOF 0
