REMARK  Name = ligand_953791
REMARK  4 active torsions:
REMARK  status: ('A' for Active; 'I' for Inactive)
REMARK    1  A    between atoms: C_1  and  N_2
REMARK    2  A    between atoms: N_2  and  C_3
REMARK    3  A    between atoms: C_3  and  C_4
REMARK    4  A    between atoms: C_6  and  N_7
REMARK                            x       y       z     vdW  Elec       q    Type
REMARK                         _______ _______ _______ _____ _____    ______ ____
ROOT
ATOM      1  C   UNL     1       4.491  -1.102   0.974  0.00  0.00    +0.000 A 
ATOM      2  C   UNL     1       5.342  -1.872   0.202  0.00  0.00    +0.000 A 
ATOM      3  C   UNL     1       6.657  -1.516   0.553  0.00  0.00    +0.000 A 
ATOM      4  C   UNL     1       6.598  -0.556   1.528  0.00  0.00    +0.000 A 
ATOM      5  N   UNL     1       5.274  -0.309   1.782  0.00  0.00    +0.000 N 
ATOM      6  H   UNL     1       4.912   0.389   2.417  0.00  0.00    +0.000 HD
ENDROOT
BRANCH   3   7
ATOM      7  N   UNL     1       7.777  -2.008   0.022  0.00  0.00    +0.000 N 
ATOM      8  H   UNL     1       7.771  -2.675  -0.742  0.00  0.00    +0.000 HD
ATOM      9  H   UNL     1       8.696  -1.663   0.278  0.00  0.00    +0.000 HD
ENDBRANCH   3   7
BRANCH   1  10
ATOM     10  C   UNL     1       3.008  -1.009   0.988  0.00  0.00    +0.000 C 
BRANCH  10  12
ATOM     11  C   UNL     1       2.914   0.744  -0.681  0.00  0.00    +0.000 C 
ATOM     12  N   UNL     1       2.552   0.349   0.679  0.00  0.00    +0.000 NA
ATOM     13  H   UNL     1       1.535   0.359   0.751  0.00  0.00    +0.000 HD
ENDBRANCH  10  12
ENDBRANCH   1  10
TORSDOF 3
