REMARK  Name = ligand_954192
REMARK  5 active torsions:
REMARK  status: ('A' for Active; 'I' for Inactive)
REMARK    1  A    between atoms: C_1  and  N_2
REMARK    2  A    between atoms: N_2  and  C_3
REMARK    3  A    between atoms: C_3  and  C_4
REMARK    4  A    between atoms: C_4  and  C_5
REMARK    5  A    between atoms: C_7  and  C_8
REMARK                            x       y       z     vdW  Elec       q    Type
REMARK                         _______ _______ _______ _____ _____    ______ ____
ROOT
ATOM      1  C   UNL     1       4.290   2.012   2.177  0.00  0.00    +0.000 C 
ATOM      2  C   UNL     1       3.396   2.503   3.312  0.00  0.00    +0.000 C 
ATOM      3  C   UNL     1       4.087   3.768   3.810  0.00  0.00    +0.000 C 
ATOM      4  C   UNL     1       5.114   4.115   2.741  0.00  0.00    +0.000 C 
ATOM      5  N   UNL     1       4.764   3.279   1.593  0.00  0.00    +0.000 NA
ATOM      6  H   UNL     1       5.579   3.118   1.002  0.00  0.00    +0.000 HD
ENDROOT
BRANCH   1   7
ATOM      7  C   UNL     1       2.428   1.679   0.429  0.00  0.00    +0.000 C 
BRANCH   7   8
ATOM      8  C   UNL     1       3.621   1.042   1.160  0.00  0.00    +0.000 C 
BRANCH   8  10
ATOM      9  C   UNL     1       4.199  -1.085   2.248  0.00  0.00    +0.000 C 
ATOM     10  N   UNL     1       3.134  -0.208   1.781  0.00  0.00    +0.000 NA
ATOM     11  H   UNL     1       2.575  -0.720   1.097  0.00  0.00    +0.000 HD
ENDBRANCH   8  10
ENDBRANCH   7   8
ENDBRANCH   1   7
TORSDOF 3
