REMARK  Name = ligand_954758
REMARK  5 active torsions:
REMARK  status: ('A' for Active; 'I' for Inactive)
REMARK    1  A    between atoms: C_1  and  N_2
REMARK    2  A    between atoms: N_2  and  C_3
REMARK    3  A    between atoms: C_3  and  C_4
REMARK    4  A    between atoms: C_4  and  C_5
REMARK    5  A    between atoms: C_7  and  C_8
REMARK                            x       y       z     vdW  Elec       q    Type
REMARK                         _______ _______ _______ _____ _____    ______ ____
ROOT
ATOM      1  C   UNL     1       4.615  -0.650   1.086  0.00  0.00    +0.000 C 
ATOM      2  C   UNL     1       5.286  -1.187   2.125  0.00  0.00    +0.000 C 
ENDROOT
BRANCH   1   3
ATOM      3  C   UNL     1       5.300   0.029  -0.007  0.00  0.00    +0.000 C 
ATOM      4  C   UNL     1       5.298  -0.364  -1.285  0.00  0.00    +0.000 C 
ENDBRANCH   1   3
BRANCH   2   5
ATOM      5  C   UNL     1       6.723  -1.251   2.292  0.00  0.00    +0.000 C 
ATOM      6  C   UNL     1       7.303  -1.752   3.389  0.00  0.00    +0.000 C 
ENDBRANCH   2   5
BRANCH   1   7
ATOM      7  C   UNL     1       3.091  -0.601   1.113  0.00  0.00    +0.000 C 
BRANCH   7   9
ATOM      8  C   UNL     1       1.005  -1.388   0.206  0.00  0.00    +0.000 C 
ATOM      9  N   UNL     1       2.456  -1.410   0.071  0.00  0.00    +0.000 NA
ATOM     10  H   UNL     1       2.701  -1.007  -0.831  0.00  0.00    +0.000 HD
ENDBRANCH   7   9
ENDBRANCH   1   7
TORSDOF 4
