REMARK  Name = ligand_955590
REMARK  5 active torsions:
REMARK  status: ('A' for Active; 'I' for Inactive)
REMARK    1  A    between atoms: C_1  and  N_2
REMARK    2  A    between atoms: N_2  and  C_3
REMARK    3  A    between atoms: C_3  and  C_4
REMARK    4  A    between atoms: C_3  and  C_7
REMARK    5  A    between atoms: C_4  and  C_5
REMARK                            x       y       z     vdW  Elec       q    Type
REMARK                         _______ _______ _______ _____ _____    ______ ____
ROOT
ATOM      1  C   UNL     1       3.062  -1.116  -0.607  0.00  0.00    +0.000 C 
ENDROOT
BRANCH   1   3
ATOM      2  C   UNL     1       1.163   0.216   0.221  0.00  0.00    +0.000 C 
ATOM      3  N   UNL     1       2.605   0.106   0.078  0.00  0.00    +0.000 NA
ATOM      4  H   UNL     1       3.015   0.108   1.012  0.00  0.00    +0.000 HD
ENDBRANCH   1   3
BRANCH   1   5
ATOM      5  C   UNL     1       4.600  -1.134  -0.602  0.00  0.00    +0.000 C 
ATOM      6  C   UNL     1       5.353  -1.260   0.707  0.00  0.00    +0.000 C 
ATOM      7  C   UNL     1       5.484  -0.009  -0.112  0.00  0.00    +0.000 C 
ENDBRANCH   1   5
BRANCH   1   8
ATOM      8  C   UNL     1       2.501  -1.278  -2.054  0.00  0.00    +0.000 C 
BRANCH   8   9
ATOM      9  C   UNL     1       3.011  -2.596  -2.613  0.00  0.00    +0.000 C 
ATOM     10  N   UNL     1       3.434  -3.690  -3.077  0.00  0.00    +0.000 NA
ENDBRANCH   8   9
ENDBRANCH   1   8
TORSDOF 4
