REMARK  Name = ligand_95564
REMARK  5 active torsions:
REMARK  status: ('A' for Active; 'I' for Inactive)
REMARK    1  A    between atoms: C_1  and  C_2
REMARK    2  A    between atoms: C_2  and  C_3
REMARK    3  A    between atoms: C_2  and  C_6
REMARK    4  A    between atoms: C_3  and  C_4
REMARK    5  A    between atoms: C_7  and  C_8
REMARK                            x       y       z     vdW  Elec       q    Type
REMARK                         _______ _______ _______ _____ _____    ______ ____
ROOT
ATOM      1  C   UNL     1       0.922  -0.002  -0.083  0.00  0.00    +0.000 C 
ATOM      2  C   UNL     1       2.452  -0.017  -0.061  0.00  0.00    +0.000 C 
ENDROOT
BRANCH   2   3
ATOM      3  C   UNL     1       2.960  -1.422  -0.318  0.00  0.00    +0.000 C 
ATOM      4  C   UNL     1       3.754  -1.745  -1.349  0.00  0.00    +0.000 C 
BRANCH   4   5
ATOM      5  C   UNL     1       4.250  -3.065  -1.531  0.00  0.00    +0.000 C 
ATOM      6  C   UNL     1       4.689  -4.169  -1.699  0.00  0.00    +0.000 C 
ENDBRANCH   4   5
ENDBRANCH   2   3
BRANCH   2   7
ATOM      7  C   UNL     1       2.950   0.541   1.285  0.00  0.00    +0.000 C 
BRANCH   7   8
ATOM      8  C   UNL     1       4.468   0.547   1.344  0.00  0.00    +0.000 C 
ATOM      9  C   UNL     1       5.771   0.553   1.395  0.00  0.00    +0.000 C 
ENDBRANCH   7   8
ENDBRANCH   2   7
TORSDOF 4
