REMARK  Name = ligand_956064
REMARK  7 active torsions:
REMARK  status: ('A' for Active; 'I' for Inactive)
REMARK    1  A    between atoms: C_1  and  N_2
REMARK    2  A    between atoms: N_2  and  C_3
REMARK    3  A    between atoms: C_3  and  C_4
REMARK    4  A    between atoms: C_3  and  C_6
REMARK    5  A    between atoms: C_4  and  N_5
REMARK    6  A    between atoms: C_6  and  C_7
REMARK    7  A    between atoms: C_8  and  C_9
REMARK                            x       y       z     vdW  Elec       q    Type
REMARK                         _______ _______ _______ _____ _____    ______ ____
ROOT
ATOM      1  C   UNL     1       2.927  -1.018   0.991  0.00  0.00    +0.000 C 
ENDROOT
BRANCH   1   3
ATOM      2  C   UNL     1       1.054   0.092  -0.155  0.00  0.00    +0.000 C 
ATOM      3  N   UNL     1       2.498  -0.069  -0.066  0.00  0.00    +0.000 NA
ATOM      4  H   UNL     1       2.916   0.840   0.139  0.00  0.00    +0.000 HD
ENDBRANCH   1   3
BRANCH   1   5
ATOM      5  C   UNL     1       2.417  -2.465   0.727  0.00  0.00    +0.000 C 
BRANCH   5   6
ATOM      6  N   UNL     1       2.772  -3.432   1.773  0.00  0.00    +0.000 NA
ATOM      7  H   UNL     1       3.784  -3.544   1.811  0.00  0.00    +0.000 HD
ATOM      8  H   UNL     1       2.409  -4.347   1.506  0.00  0.00    +0.000 HD
ENDBRANCH   5   6
ENDBRANCH   1   5
BRANCH   1   9
ATOM      9  C   UNL     1       4.479  -0.999   1.068  0.00  0.00    +0.000 C 
BRANCH   9  10
ATOM     10  C   UNL     1       5.065   0.337   1.453  0.00  0.00    +0.000 C 
ATOM     11  C   UNL     1       5.904   1.034   0.669  0.00  0.00    +0.000 C 
ATOM     12  C   UNL     1       6.524   2.336   1.055  0.00  0.00    +0.000 C 
ENDBRANCH   9  10
ENDBRANCH   1   9
TORSDOF 5
