REMARK  Name = ligand_957291
REMARK  2 active torsions:
REMARK  status: ('A' for Active; 'I' for Inactive)
REMARK    1  A    between atoms: C_1  and  N_2
REMARK    2  A    between atoms: N_2  and  N_3
REMARK                            x       y       z     vdW  Elec       q    Type
REMARK                         _______ _______ _______ _____ _____    ______ ____
ROOT
ATOM      1  N   UNL     1       2.931  -1.102   1.035  0.00  0.00    +0.000 N 
ATOM      2  C   UNL     1       3.619  -0.900   2.292  0.00  0.00    +0.000 C 
ATOM      3  C   UNL     1       2.840  -1.795   3.342  0.00  0.00    +0.000 C 
ATOM      4  C   UNL     1       3.308  -2.892   2.294  0.00  0.00    +0.000 C 
ATOM      5  C   UNL     1       4.671  -2.086   2.375  0.00  0.00    +0.000 C 
ATOM      6  C   UNL     1       2.661  -2.446   0.924  0.00  0.00    +0.000 C 
ATOM      7  N   UNL     1       2.093  -3.184   0.052  0.00  0.00    +0.000 NA
ATOM      8  H   UNL     1       2.116  -4.162   0.367  0.00  0.00    +0.000 HD
ENDROOT
BRANCH   1  10
ATOM      9  C   UNL     1       3.604   0.038  -0.860  0.00  0.00    +0.000 C 
ATOM     10  N   UNL     1       2.542  -0.133   0.125  0.00  0.00    +0.000 NA
ATOM     11  H   UNL     1       1.700  -0.458  -0.363  0.00  0.00    +0.000 HD
ENDBRANCH   1  10
TORSDOF 1
