REMARK  Name = ligand_957326
REMARK  1 active torsions:
REMARK  status: ('A' for Active; 'I' for Inactive)
REMARK    1  A    between atoms: N_2  and  N_3
REMARK                            x       y       z     vdW  Elec       q    Type
REMARK                         _______ _______ _______ _____ _____    ______ ____
ROOT
ATOM      1  N   UNL     1       3.181   0.407  -1.194  0.00  0.00    +0.000 N 
ATOM      2  C   UNL     1       2.483   0.787  -2.437  0.00  0.00    +0.000 C 
ATOM      3  C   UNL     1       2.685  -0.386  -3.354  0.00  0.00    +0.000 C 
ATOM      4  C   UNL     1       4.010  -0.698  -3.998  0.00  0.00    +0.000 C 
ATOM      5  C   UNL     1       3.657  -1.325  -2.681  0.00  0.00    +0.000 C 
ATOM      6  C   UNL     1       3.988  -0.714  -1.372  0.00  0.00    +0.000 C 
ATOM      7  N   UNL     1       4.880  -1.243  -0.613  0.00  0.00    +0.000 NA
ATOM      8  H   UNL     1       5.294  -2.057  -1.080  0.00  0.00    +0.000 HD
ENDROOT
BRANCH   1  10
ATOM      9  C   UNL     1       3.129   0.595   1.060  0.00  0.00    +0.000 C 
ATOM     10  N   UNL     1       2.471   0.686  -0.049  0.00  0.00    +0.000 NA
ENDBRANCH   1  10
TORSDOF 1
