REMARK  Name = ligand_958594
REMARK  1 active torsions:
REMARK  status: ('A' for Active; 'I' for Inactive)
REMARK    1  A    between atoms: N_1  and  C_2
REMARK                            x       y       z     vdW  Elec       q    Type
REMARK                         _______ _______ _______ _____ _____    ______ ____
ROOT
ATOM      1  C   UNL     1       2.541   0.265  -0.569  0.00  0.00    +0.000 C 
ATOM      2  C   UNL     1       3.494   1.455  -0.579  0.00  0.00    +0.000 C 
ATOM      3  C   UNL     1       4.729   0.688  -0.183  0.00  0.00    +0.000 C 
ATOM      4  C   UNL     1       4.337  -0.449   0.712  0.00  0.00    +0.000 C 
ATOM      5  C   UNL     1       2.846  -0.692   0.672  0.00  0.00    +0.000 C 
ATOM      6  C   UNL     1       2.602  -1.883  -0.321  0.00  0.00    +0.000 C 
ATOM      7  C   UNL     1       3.309  -0.888  -1.310  0.00  0.00    +0.000 C 
ATOM      8  N   UNL     1       4.700  -0.685  -0.713  0.00  0.00    +0.000 NA
ENDROOT
BRANCH   1   9
ATOM      9  N   UNL     1       1.139   0.454  -0.895  0.00  0.00    +0.000 NA
ATOM     10  H   UNL     1       0.713   1.241  -0.406  0.00  0.00    +0.000 HD
ATOM     11  H   UNL     1       0.531  -0.341  -0.707  0.00  0.00    +0.000 HD
ENDBRANCH   1   9
TORSDOF 1
