REMARK  Name = ligand_958696
REMARK  1 active torsions:
REMARK  status: ('A' for Active; 'I' for Inactive)
REMARK    1  A    between atoms: N_1  and  C_2
REMARK                            x       y       z     vdW  Elec       q    Type
REMARK                         _______ _______ _______ _____ _____    ______ ____
ROOT
ATOM      1  C   UNL     1       2.125  -0.202  -0.199  0.00  0.00    +0.000 C 
ATOM      2  C   UNL     1       2.548  -0.458   1.290  0.00  0.00    +0.000 C 
ATOM      3  C   UNL     1       3.702   0.500   0.752  0.00  0.00    +0.000 C 
ATOM      4  C   UNL     1       3.635  -0.503  -0.492  0.00  0.00    +0.000 C 
ATOM      5  C   UNL     1       4.955   0.613   1.501  0.00  0.00    +0.000 C 
ATOM      6  C   UNL     1       4.948   0.986   2.786  0.00  0.00    +0.000 C 
ATOM      7  C   UNL     1       2.996   1.744   0.281  0.00  0.00    +0.000 C 
ATOM      8  C   UNL     1       1.920   1.248  -0.357  0.00  0.00    +0.000 C 
ENDROOT
BRANCH   1   9
ATOM      9  N   UNL     1       1.211  -1.174  -0.718  0.00  0.00    +0.000 NA
ATOM     10  H   UNL     1       0.546  -1.519  -0.030  0.00  0.00    +0.000 HD
ATOM     11  H   UNL     1       0.652  -0.830  -1.497  0.00  0.00    +0.000 HD
ENDBRANCH   1   9
TORSDOF 1
