REMARK  Name = ligand_958704
REMARK  1 active torsions:
REMARK  status: ('A' for Active; 'I' for Inactive)
REMARK    1  A    between atoms: N_1  and  C_2
REMARK                            x       y       z     vdW  Elec       q    Type
REMARK                         _______ _______ _______ _____ _____    ______ ____
ROOT
ATOM      1  C   UNL     1       2.863  -0.119  -0.024  0.00  0.00    +0.000 C 
ATOM      2  C   UNL     1       3.602   1.140   0.492  0.00  0.00    +0.000 C 
ATOM      3  C   UNL     1       4.812   0.688  -0.369  0.00  0.00    +0.000 C 
ATOM      4  C   UNL     1       3.777  -0.049  -1.276  0.00  0.00    +0.000 C 
ATOM      5  C   UNL     1       4.082  -1.404  -1.896  0.00  0.00    +0.000 C 
ATOM      6  C   UNL     1       4.466  -2.448  -0.850  0.00  0.00    +0.000 C 
ATOM      7  C   UNL     1       3.665  -2.387   0.420  0.00  0.00    +0.000 C 
ATOM      8  C   UNL     1       2.927  -1.336   0.806  0.00  0.00    +0.000 C 
ENDROOT
BRANCH   1   9
ATOM      9  N   UNL     1       1.497   0.210  -0.406  0.00  0.00    +0.000 NA
ATOM     10  H   UNL     1       1.389   1.098  -0.891  0.00  0.00    +0.000 HD
ATOM     11  H   UNL     1       0.841   0.222   0.370  0.00  0.00    +0.000 HD
ENDBRANCH   1   9
TORSDOF 1
