REMARK  Name = ligand_96056
REMARK  6 active torsions:
REMARK  status: ('A' for Active; 'I' for Inactive)
REMARK    1  A    between atoms: C_1  and  C_2
REMARK    2  A    between atoms: C_2  and  C_3
REMARK    3  A    between atoms: C_3  and  C_4
REMARK    4  A    between atoms: C_3  and  C_5
REMARK    5  A    between atoms: C_5  and  C_6
REMARK    6  A    between atoms: C_6  and  C_8
REMARK                            x       y       z     vdW  Elec       q    Type
REMARK                         _______ _______ _______ _____ _____    ______ ____
ROOT
ATOM      1  C   UNL     1       4.541   0.153   1.382  0.00  0.00    +0.000 C 
ENDROOT
BRANCH   1   2
ATOM      2  C   UNL     1       2.998   0.086   1.364  0.00  0.00    +0.000 C 
ATOM      3  C   UNL     1       2.493  -1.055   2.261  0.00  0.00    +0.000 C 
BRANCH   2   5
ATOM      4  C   UNL     1       0.978  -0.091  -0.155  0.00  0.00    +0.000 C 
ATOM      5  C   UNL     1       2.497  -0.083  -0.077  0.00  0.00    +0.000 C 
ENDBRANCH   2   5
ENDBRANCH   1   2
BRANCH   1   6
ATOM      6  C   UNL     1       5.077   0.364   2.769  0.00  0.00    +0.000 C 
ATOM      7  C   UNL     1       5.913  -0.485   3.390  0.00  0.00    +0.000 C 
BRANCH   6   8
ATOM      8  C   UNL     1       4.580   1.530   3.608  0.00  0.00    +0.000 C 
ATOM      9  C   UNL     1       4.154   2.529   4.329  0.00  0.00    +0.000 C 
ENDBRANCH   6   8
ENDBRANCH   1   6
TORSDOF 4
