REMARK  Name = ligand_960614
REMARK  2 active torsions:
REMARK  status: ('A' for Active; 'I' for Inactive)
REMARK    1  A    between atoms: N_1  and  C_2
REMARK    2  A    between atoms: C_7  and  C_8
REMARK                            x       y       z     vdW  Elec       q    Type
REMARK                         _______ _______ _______ _____ _____    ______ ____
ROOT
ATOM      1  C   UNL     1       2.378   0.007  -0.042  0.00  0.00    +0.000 C 
ATOM      2  C   UNL     1       2.897   1.204  -0.868  0.00  0.00    +0.000 C 
ATOM      3  C   UNL     1       3.218   0.602  -2.203  0.00  0.00    +0.000 C 
ATOM      4  C   UNL     1       3.222  -0.735  -2.148  0.00  0.00    +0.000 C 
ATOM      5  C   UNL     1       2.893  -1.190  -0.813  0.00  0.00    +0.000 C 
ATOM      6  C   UNL     1       3.093  -2.439  -0.369  0.00  0.00    +0.000 C 
ENDROOT
BRANCH   1   7
ATOM      7  N   UNL     1       0.910   0.002  -0.003  0.00  0.00    +0.000 NA
ATOM      8  H   UNL     1       0.585   0.790   0.551  0.00  0.00    +0.000 HD
ATOM      9  H   UNL     1       0.604  -0.842   0.480  0.00  0.00    +0.000 HD
ENDBRANCH   1   7
BRANCH   6  10
ATOM     10  C   UNL     1       2.827  -2.828   0.974  0.00  0.00    +0.000 C 
ATOM     11  C   UNL     1       2.619  -3.148   2.110  0.00  0.00    +0.000 C 
ENDBRANCH   6  10
TORSDOF 2
