REMARK  Name = ligand_960846
REMARK  2 active torsions:
REMARK  status: ('A' for Active; 'I' for Inactive)
REMARK    1  A    between atoms: N_1  and  C_2
REMARK    2  A    between atoms: C_4  and  C_5
REMARK                            x       y       z     vdW  Elec       q    Type
REMARK                         _______ _______ _______ _____ _____    ______ ____
ROOT
ATOM      1  C   UNL     1       2.413   0.035   0.038  0.00  0.00    +0.000 C 
ATOM      2  C   UNL     1       2.730   1.237  -0.870  0.00  0.00    +0.000 C 
ATOM      3  C   UNL     1       2.454   0.709  -2.292  0.00  0.00    +0.000 C 
ATOM      4  C   UNL     1       2.974  -0.714  -2.214  0.00  0.00    +0.000 C 
ATOM      5  C   UNL     1       2.077  -1.856  -1.829  0.00  0.00    +0.000 C 
ATOM      6  C   UNL     1       2.890  -1.148  -0.770  0.00  0.00    +0.000 C 
ENDROOT
BRANCH   1   7
ATOM      7  N   UNL     1       0.983  -0.076   0.296  0.00  0.00    +0.000 NA
ATOM      8  H   UNL     1       0.655   0.758   0.779  0.00  0.00    +0.000 HD
ATOM      9  H   UNL     1       0.811  -0.865   0.915  0.00  0.00    +0.000 HD
ENDBRANCH   1   7
BRANCH   3  10
ATOM     10  C   UNL     1       3.076   1.574  -3.352  0.00  0.00    +0.000 C 
ATOM     11  C   UNL     1       2.368   2.213  -4.293  0.00  0.00    +0.000 C 
ENDBRANCH   3  10
TORSDOF 2
