REMARK  Name = ligand_961129
REMARK  1 active torsions:
REMARK  status: ('A' for Active; 'I' for Inactive)
REMARK    1  A    between atoms: C_4  and  C_7
REMARK                            x       y       z     vdW  Elec       q    Type
REMARK                         _______ _______ _______ _____ _____    ______ ____
ROOT
ATOM      1  N   UNL     1       1.708  -0.909   0.892  0.00  0.00    +0.000 NA
ATOM      2  C   UNL     1       2.577  -0.131   0.351  0.00  0.00    +0.000 C 
ATOM      3  C   UNL     1       2.252   1.216  -0.285  0.00  0.00    +0.000 C 
ATOM      4  C   UNL     1       3.584   1.481  -0.954  0.00  0.00    +0.000 C 
ATOM      5  C   UNL     1       4.507   0.573  -0.591  0.00  0.00    +0.000 C 
ATOM      6  N   UNL     1       3.916  -0.362   0.227  0.00  0.00    +0.000 N 
ATOM      7  H   UNL     1       0.777  -0.499   0.825  0.00  0.00    +0.000 HD
ATOM      8  H   UNL     1       4.339  -1.250   0.425  0.00  0.00    +0.000 HD
ENDROOT
BRANCH   4   9
ATOM      9  C   UNL     1       5.934   0.554  -0.873  0.00  0.00    +0.000 C 
ATOM     10  C   UNL     1       6.423   0.584  -2.297  0.00  0.00    +0.000 C 
ATOM     11  C   UNL     1       6.596  -0.658  -1.470  0.00  0.00    +0.000 C 
ENDBRANCH   4   9
TORSDOF 1
