REMARK  Name = ligand_961618
REMARK  1 active torsions:
REMARK  status: ('A' for Active; 'I' for Inactive)
REMARK    1  A    between atoms: N_1  and  C_2
REMARK                            x       y       z     vdW  Elec       q    Type
REMARK                         _______ _______ _______ _____ _____    ______ ____
ROOT
ATOM      1  C   UNL     1       2.370   0.284   0.094  0.00  0.00    +0.000 C 
ATOM      2  C   UNL     1       3.505   0.986   0.912  0.00  0.00    +0.000 C 
ATOM      3  N   UNL     1       4.885   1.064   0.368  0.00  0.00    +0.000 NA
ATOM      4  C   UNL     1       4.906   0.811  -1.100  0.00  0.00    +0.000 C 
ATOM      5  C   UNL     1       5.049  -0.706  -0.826  0.00  0.00    +0.000 C 
ATOM      6  C   UNL     1       5.609  -0.238   0.539  0.00  0.00    +0.000 C 
ATOM      7  C   UNL     1       3.851  -1.590  -0.699  0.00  0.00    +0.000 C 
ATOM      8  C   UNL     1       2.668  -1.145  -0.243  0.00  0.00    +0.000 C 
ENDROOT
BRANCH   1   9
ATOM      9  N   UNL     1       1.059   0.369   0.749  0.00  0.00    +0.000 NA
ATOM     10  H   UNL     1       0.651   1.279   0.534  0.00  0.00    +0.000 HD
ATOM     11  H   UNL     1       1.175   0.348   1.760  0.00  0.00    +0.000 HD
ENDBRANCH   1   9
TORSDOF 1
