REMARK  Name = ligand_961966
REMARK  2 active torsions:
REMARK  status: ('A' for Active; 'I' for Inactive)
REMARK    1  A    between atoms: N_1  and  C_2
REMARK    2  A    between atoms: C_7  and  C_8
REMARK                            x       y       z     vdW  Elec       q    Type
REMARK                         _______ _______ _______ _____ _____    ______ ____
ROOT
ATOM      1  C   UNL     1       2.513  -0.087   0.061  0.00  0.00    +0.000 C 
ATOM      2  C   UNL     1       3.174  -1.319   0.729  0.00  0.00    +0.000 C 
ATOM      3  N   UNL     1       4.475  -0.798   1.123  0.00  0.00    +0.000 N 
ATOM      4  C   UNL     1       4.400   0.558   1.306  0.00  0.00    +0.000 C 
ATOM      5  N   UNL     1       5.350   1.294   1.763  0.00  0.00    +0.000 NA
ATOM      6  C   UNL     1       3.025   1.106   0.921  0.00  0.00    +0.000 C 
ATOM      7  H   UNL     1       4.994  -1.324   1.815  0.00  0.00    +0.000 HD
ATOM      8  H   UNL     1       6.172   0.707   1.925  0.00  0.00    +0.000 HD
ENDROOT
BRANCH   1   9
ATOM      9  N   UNL     1       1.059  -0.200  -0.095  0.00  0.00    +0.000 NA
ATOM     10  H   UNL     1       0.842  -0.885  -0.818  0.00  0.00    +0.000 HD
ATOM     11  H   UNL     1       0.690   0.693  -0.424  0.00  0.00    +0.000 HD
ENDBRANCH   1   9
BRANCH   6  12
ATOM     12  C   UNL     1       2.233   1.376   2.180  0.00  0.00    +0.000 C 
ATOM     13  C   UNL     1       1.769   2.581   2.535  0.00  0.00    +0.000 C 
ENDBRANCH   6  12
TORSDOF 2
