REMARK  Name = ligand_96256
REMARK  5 active torsions:
REMARK  status: ('A' for Active; 'I' for Inactive)
REMARK    1  A    between atoms: C_1  and  C_2
REMARK    2  A    between atoms: C_2  and  C_3
REMARK    3  A    between atoms: C_3  and  C_4
REMARK    4  A    between atoms: C_4  and  C_6
REMARK    5  A    between atoms: C_7  and  C_8
REMARK                            x       y       z     vdW  Elec       q    Type
REMARK                         _______ _______ _______ _____ _____    ______ ____
ROOT
ATOM      1  C   UNL     1       4.718  -1.214  -0.848  0.00  0.00    +0.000 C 
ATOM      2  C   UNL     1       5.485  -0.303  -0.227  0.00  0.00    +0.000 C 
ENDROOT
BRANCH   1   3
ATOM      3  C   UNL     1       5.371  -2.256  -1.575  0.00  0.00    +0.000 C 
ATOM      4  C   UNL     1       5.952  -3.119  -2.173  0.00  0.00    +0.000 C 
BRANCH   4   5
ATOM      5  C   UNL     1       6.677  -4.113  -2.882  0.00  0.00    +0.000 C 
ATOM      6  C   UNL     1       6.792  -5.364  -2.425  0.00  0.00    +0.000 C 
ENDBRANCH   4   5
ENDBRANCH   1   3
BRANCH   1   7
ATOM      7  C   UNL     1       3.208  -1.150  -0.819  0.00  0.00    +0.000 C 
BRANCH   7   9
ATOM      8  C   UNL     1       2.897  -2.627   1.244  0.00  0.00    +0.000 C 
ATOM      9  C   UNL     1       2.526  -2.384  -0.212  0.00  0.00    +0.000 C 
ENDBRANCH   7   9
ENDBRANCH   1   7
TORSDOF 4
