REMARK  Name = ligand_962986
REMARK  1 active torsions:
REMARK  status: ('A' for Active; 'I' for Inactive)
REMARK    1  A    between atoms: C_2  and  C_3
REMARK                            x       y       z     vdW  Elec       q    Type
REMARK                         _______ _______ _______ _____ _____    ______ ____
ROOT
ATOM      1  C   UNL     1       3.771   0.107  -0.067  0.00  0.00    +0.000 C 
ATOM      2  C   UNL     1       4.252   0.816  -1.316  0.00  0.00    +0.000 C 
ATOM      3  C   UNL     1       5.519   1.544  -1.403  0.00  0.00    +0.000 C 
ATOM      4  C   UNL     1       6.708   0.950  -1.274  0.00  0.00    +0.000 C 
ATOM      5  C   UNL     1       6.601  -0.471  -0.910  0.00  0.00    +0.000 C 
ATOM      6  N   UNL     1       5.516  -1.179  -0.838  0.00  0.00    +0.000 NA
ATOM      7  N   UNL     1       4.312  -0.647  -1.211  0.00  0.00    +0.000 N 
ENDROOT
BRANCH   1   9
ATOM      8  N   UNL     1       1.212   0.035   0.382  0.00  0.00    +0.000 NA
ATOM      9  C   UNL     1       2.356   0.050   0.179  0.00  0.00    +0.000 C 
ENDBRANCH   1   9
TORSDOF 1
