REMARK  Name = ligand_96356
REMARK  6 active torsions:
REMARK  status: ('A' for Active; 'I' for Inactive)
REMARK    1  A    between atoms: C_1  and  C_2
REMARK    2  A    between atoms: C_2  and  C_3
REMARK    3  A    between atoms: C_3  and  C_4
REMARK    4  A    between atoms: C_5  and  C_6
REMARK    5  A    between atoms: C_6  and  C_7
REMARK    6  A    between atoms: C_7  and  C_8
REMARK                            x       y       z     vdW  Elec       q    Type
REMARK                         _______ _______ _______ _____ _____    ______ ____
ROOT
ATOM      1  C   UNL     1       4.490   0.724   1.332  0.00  0.00    +0.000 C 
ATOM      2  C   UNL     1       5.794   0.724   1.332  0.00  0.00    +0.000 C 
ENDROOT
BRANCH   1   3
ATOM      3  C   UNL     1       2.970   0.724   1.332  0.00  0.00    +0.000 C 
BRANCH   3   5
ATOM      4  C   UNL     1       0.932   0.038   0.058  0.00  0.00    +0.000 C 
ATOM      5  C   UNL     1       2.447   0.045   0.072  0.00  0.00    +0.000 C 
ENDBRANCH   3   5
ENDBRANCH   1   3
BRANCH   2   6
ATOM      6  C   UNL     1       7.314   0.724   1.332  0.00  0.00    +0.000 C 
BRANCH   6   7
ATOM      7  C   UNL     1       7.830  -0.065   2.524  0.00  0.00    +0.000 C 
ATOM      8  C   UNL     1       7.493  -1.526   2.703  0.00  0.00    +0.000 C 
ATOM      9  C   UNL     1       8.615   0.534   3.449  0.00  0.00    +0.000 C 
ENDBRANCH   6   7
ENDBRANCH   2   6
TORSDOF 4
