REMARK  Name = ligand_963559
REMARK  3 active torsions:
REMARK  status: ('A' for Active; 'I' for Inactive)
REMARK    1  A    between atoms: N_1  and  C_2
REMARK    2  A    between atoms: C_2  and  C_3
REMARK    3  A    between atoms: C_8  and  N_9
REMARK                            x       y       z     vdW  Elec       q    Type
REMARK                         _______ _______ _______ _____ _____    ______ ____
ROOT
ATOM      1  C   UNL     1       2.720  -1.138  -1.029  0.00  0.00    +0.000 C 
ATOM      2  C   UNL     1       2.991  -2.467  -0.343  0.00  0.00    +0.000 C 
ATOM      3  C   UNL     1       2.812  -3.632  -0.980  0.00  0.00    +0.000 C 
ATOM      4  C   UNL     1       2.355  -3.668  -2.348  0.00  0.00    +0.000 C 
ATOM      5  C   UNL     1       1.811  -2.585  -2.926  0.00  0.00    +0.000 C 
ATOM      6  C   UNL     1       1.677  -1.272  -2.193  0.00  0.00    +0.000 C 
ENDROOT
BRANCH   6   7
ATOM      7  N   UNL     1       0.282  -1.148  -1.756  0.00  0.00    +0.000 NA
ATOM      8  H   UNL     1       0.109  -1.869  -1.053  0.00  0.00    +0.000 HD
ATOM      9  H   UNL     1      -0.336  -1.366  -2.536  0.00  0.00    +0.000 HD
ENDBRANCH   6   7
BRANCH   1  10
ATOM     10  C   UNL     1       2.355  -0.006  -0.040  0.00  0.00    +0.000 C 
BRANCH  10  11
ATOM     11  N   UNL     1       3.441   0.283   0.910  0.00  0.00    +0.000 NA
ATOM     12  H   UNL     1       3.201   1.118   1.442  0.00  0.00    +0.000 HD
ATOM     13  H   UNL     1       4.292   0.504   0.395  0.00  0.00    +0.000 HD
ENDBRANCH  10  11
ENDBRANCH   1  10
TORSDOF 3
