REMARK  Name = ligand_963680
REMARK  3 active torsions:
REMARK  status: ('A' for Active; 'I' for Inactive)
REMARK    1  A    between atoms: N_1  and  C_2
REMARK    2  A    between atoms: C_2  and  C_3
REMARK    3  A    between atoms: C_6  and  C_8
REMARK                            x       y       z     vdW  Elec       q    Type
REMARK                         _______ _______ _______ _____ _____    ______ ____
ROOT
ATOM      1  C   UNL     1       3.032   1.531  -0.265  0.00  0.00    +0.000 C 
ATOM      2  C   UNL     1       4.175   1.763   0.721  0.00  0.00    +0.000 C 
ATOM      3  C   UNL     1       4.180   3.261   1.013  0.00  0.00    +0.000 C 
ATOM      4  C   UNL     1       3.077   3.852   0.141  0.00  0.00    +0.000 C 
ATOM      5  N   UNL     1       2.172   2.713  -0.085  0.00  0.00    +0.000 NA
ATOM      6  H   UNL     1       1.614   2.876  -0.916  0.00  0.00    +0.000 HD
ENDROOT
BRANCH   4   7
ATOM      7  C   UNL     1       3.672   4.364  -1.160  0.00  0.00    +0.000 C 
ATOM      8  C   UNL     1       4.182   4.804  -2.277  0.00  0.00    +0.000 C 
ENDBRANCH   4   7
BRANCH   1   9
ATOM      9  C   UNL     1       2.318   0.183  -0.022  0.00  0.00    +0.000 C 
BRANCH   9  10
ATOM     10  N   UNL     1       3.220  -0.959  -0.217  0.00  0.00    +0.000 NA
ATOM     11  H   UNL     1       2.725  -1.818   0.027  0.00  0.00    +0.000 HD
ATOM     12  H   UNL     1       4.006  -0.896   0.434  0.00  0.00    +0.000 HD
ENDBRANCH   9  10
ENDBRANCH   1   9
TORSDOF 3
