REMARK  Name = ligand_963928
REMARK  4 active torsions:
REMARK  status: ('A' for Active; 'I' for Inactive)
REMARK    1  A    between atoms: N_1  and  C_2
REMARK    2  A    between atoms: C_2  and  C_3
REMARK    3  A    between atoms: C_3  and  C_6
REMARK    4  A    between atoms: C_8  and  N_9
REMARK                            x       y       z     vdW  Elec       q    Type
REMARK                         _______ _______ _______ _____ _____    ______ ____
ROOT
ATOM      1  C   UNL     1       2.820  -0.203  -1.246  0.00  0.00    +0.000 C 
ATOM      2  C   UNL     1       1.909  -0.579  -2.410  0.00  0.00    +0.000 C 
ATOM      3  N   UNL     1       2.651  -1.604  -1.714  0.00  0.00    +0.000 NA
ATOM      4  H   UNL     1       3.468  -1.893  -2.251  0.00  0.00    +0.000 HD
ENDROOT
BRANCH   1   5
ATOM      5  C   UNL     1       4.238   0.381  -1.413  0.00  0.00    +0.000 C 
ATOM      6  C   UNL     1       4.504   1.867  -1.307  0.00  0.00    +0.000 C 
ATOM      7  C   UNL     1       4.809   1.149  -2.583  0.00  0.00    +0.000 C 
BRANCH   7   8
ATOM      8  N   UNL     1       4.047   1.507  -3.773  0.00  0.00    +0.000 NA
ATOM      9  H   UNL     1       3.090   1.768  -3.535  0.00  0.00    +0.000 HD
ATOM     10  H   UNL     1       3.988   0.725  -4.421  0.00  0.00    +0.000 HD
ENDBRANCH   7   8
ENDBRANCH   1   5
BRANCH   1  11
ATOM     11  C   UNL     1       2.167   0.090   0.105  0.00  0.00    +0.000 C 
BRANCH  11  12
ATOM     12  N   UNL     1       1.272   1.243   0.024  0.00  0.00    +0.000 NA
ATOM     13  H   UNL     1       0.884   1.410   0.952  0.00  0.00    +0.000 HD
ATOM     14  H   UNL     1       0.475   0.994  -0.560  0.00  0.00    +0.000 HD
ENDBRANCH  11  12
ENDBRANCH   1  11
TORSDOF 4
