REMARK  Name = ligand_964260
REMARK  2 active torsions:
REMARK  status: ('A' for Active; 'I' for Inactive)
REMARK    1  A    between atoms: N_1  and  C_2
REMARK    2  A    between atoms: C_2  and  C_3
REMARK                            x       y       z     vdW  Elec       q    Type
REMARK                         _______ _______ _______ _____ _____    ______ ____
ROOT
ATOM      1  C   UNL     1       2.804   0.907  -1.104  0.00  0.00    +0.000 C 
ATOM      2  N   UNL     1       2.967   0.486  -2.334  0.00  0.00    +0.000 NA
ATOM      3  C   UNL     1       2.819   1.685  -3.170  0.00  0.00    +0.000 C 
ATOM      4  C   UNL     1       4.124   2.493  -3.357  0.00  0.00    +0.000 C 
ATOM      5  C   UNL     1       3.369   3.732  -2.820  0.00  0.00    +0.000 C 
ATOM      6  C   UNL     1       2.331   2.793  -2.190  0.00  0.00    +0.000 C 
ATOM      7  N   UNL     1       2.671   2.267  -0.901  0.00  0.00    +0.000 N 
ATOM      8  H   UNL     1       2.069   2.490  -0.114  0.00  0.00    +0.000 HD
ENDROOT
BRANCH   1   9
ATOM      9  C   UNL     1       2.609  -0.049   0.056  0.00  0.00    +0.000 C 
BRANCH   9  10
ATOM     10  N   UNL     1       1.327   0.308   0.691  0.00  0.00    +0.000 NA
ATOM     11  H   UNL     1       1.097  -0.413   1.372  0.00  0.00    +0.000 HD
ATOM     12  H   UNL     1       0.602   0.241  -0.028  0.00  0.00    +0.000 HD
ENDBRANCH   9  10
ENDBRANCH   1   9
TORSDOF 2
