REMARK  Name = ligand_96421
REMARK  0 active torsions:
REMARK  status: ('A' for Active; 'I' for Inactive)
REMARK                            x       y       z     vdW  Elec       q    Type
REMARK                         _______ _______ _______ _____ _____    ______ ____
ROOT
ATOM      1  C   UNL     1      -1.774   1.117   0.860  0.00  0.00    +0.000 C 
ATOM      2  C   UNL     1      -1.547  -0.228   0.254  0.00  0.00    +0.000 C 
ATOM      3  C   UNL     1      -1.210   1.023  -0.542  0.00  0.00    +0.000 C 
ATOM      4  C   UNL     1       0.257   0.851  -0.919  0.00  0.00    +0.000 C 
ATOM      5  C   UNL     1       1.183   0.952   0.292  0.00  0.00    +0.000 C 
ATOM      6  C   UNL     1       1.112  -0.511   0.698  0.00  0.00    +0.000 C 
ATOM      7  C   UNL     1       1.597  -1.161  -0.611  0.00  0.00    +0.000 C 
ATOM      8  N   UNL     1       0.293  -0.639  -1.170  0.00  0.00    +0.000 NA
ATOM      9  C   UNL     1      -0.285  -1.064   0.208  0.00  0.00    +0.000 C 
ENDROOT
TORSDOF 0
