REMARK  Name = ligand_964615
REMARK  3 active torsions:
REMARK  status: ('A' for Active; 'I' for Inactive)
REMARK    1  A    between atoms: N_1  and  C_2
REMARK    2  A    between atoms: C_3  and  C_4
REMARK    3  A    between atoms: C_3  and  C_7
REMARK                            x       y       z     vdW  Elec       q    Type
REMARK                         _______ _______ _______ _____ _____    ______ ____
ROOT
ATOM      1  C   UNL     1       2.409  -0.199  -0.151  0.00  0.00    +0.000 C 
ATOM      2  C   UNL     1       3.062  -0.196  -1.333  0.00  0.00    +0.000 C 
ENDROOT
BRANCH   2   3
ATOM      3  C   UNL     1       4.570  -0.091  -1.205  0.00  0.00    +0.000 C 
ATOM      4  N   UNL     1       5.267  -0.546  -0.119  0.00  0.00    +0.000 N 
ATOM      5  N   UNL     1       5.316   0.422  -2.136  0.00  0.00    +0.000 NA
ATOM      6  H   UNL     1       4.926  -1.409   0.280  0.00  0.00    +0.000 HD
ATOM      7  H   UNL     1       6.260  -0.580  -0.333  0.00  0.00    +0.000 HD
ATOM      8  H   UNL     1       4.735   0.753  -2.913  0.00  0.00    +0.000 HD
ENDBRANCH   2   3
BRANCH   1   9
ATOM      9  N   UNL     1       1.053  -0.279   0.074  0.00  0.00    +0.000 N 
ATOM     10  H   UNL     1       0.741   0.197   0.918  0.00  0.00    +0.000 HD
ATOM     11  H   UNL     1       0.484  -0.059  -0.740  0.00  0.00    +0.000 HD
ENDBRANCH   1   9
BRANCH   2  12
ATOM     12  C   UNL     1       2.373  -0.211  -2.644  0.00  0.00    +0.000 C 
ATOM     13  C   UNL     1       1.490  -1.391  -2.988  0.00  0.00    +0.000 C 
ATOM     14  C   UNL     1       2.774  -1.178  -3.730  0.00  0.00    +0.000 C 
ENDBRANCH   2  12
TORSDOF 3
