REMARK  Name = ligand_964789
REMARK  3 active torsions:
REMARK  status: ('A' for Active; 'I' for Inactive)
REMARK    1  A    between atoms: N_1  and  C_2
REMARK    2  A    between atoms: C_2  and  C_3
REMARK    3  A    between atoms: C_3  and  C_4
REMARK                            x       y       z     vdW  Elec       q    Type
REMARK                         _______ _______ _______ _____ _____    ______ ____
ROOT
ATOM      1  C   UNL     1       4.598  -1.090   0.997  0.00  0.00    +0.000 C 
ATOM      2  C   UNL     1       5.377   0.003   1.104  0.00  0.00    +0.000 C 
ATOM      3  C   UNL     1       6.843  -0.368   1.225  0.00  0.00    +0.000 C 
ATOM      4  C   UNL     1       6.708  -1.887   1.191  0.00  0.00    +0.000 C 
ATOM      5  N   UNL     1       7.681  -2.716   1.336  0.00  0.00    +0.000 NA
ATOM      6  N   UNL     1       5.396  -2.205   1.010  0.00  0.00    +0.000 N 
ATOM      7  H   UNL     1       8.560  -2.208   1.471  0.00  0.00    +0.000 HD
ATOM      8  H   UNL     1       5.053  -3.149   1.091  0.00  0.00    +0.000 HD
ENDROOT
BRANCH   1   9
ATOM      9  C   UNL     1       3.103  -1.137   0.912  0.00  0.00    +0.000 C 
BRANCH   9  10
ATOM     10  C   UNL     1       2.567  -2.233  -0.019  0.00  0.00    +0.000 C 
BRANCH  10  11
ATOM     11  N   UNL     1       1.105  -2.231  -0.057  0.00  0.00    +0.000 NA
ATOM     12  H   UNL     1       0.784  -2.983  -0.666  0.00  0.00    +0.000 HD
ATOM     13  H   UNL     1       0.774  -1.363  -0.479  0.00  0.00    +0.000 HD
ENDBRANCH  10  11
ENDBRANCH   9  10
ENDBRANCH   1   9
TORSDOF 3
