REMARK  Name = ligand_964863
REMARK  3 active torsions:
REMARK  status: ('A' for Active; 'I' for Inactive)
REMARK    1  A    between atoms: C_2  and  C_3
REMARK    2  A    between atoms: C_3  and  C_4
REMARK    3  A    between atoms: N_6  and  C_7
REMARK                            x       y       z     vdW  Elec       q    Type
REMARK                         _______ _______ _______ _____ _____    ______ ____
ROOT
ATOM      1  C   UNL     1       4.218   0.280   1.389  0.00  0.00    +0.000 C 
ATOM      2  C   UNL     1       5.007   1.522   1.728  0.00  0.00    +0.000 C 
ATOM      3  N   UNL     1       5.651   0.221   1.755  0.00  0.00    +0.000 NA
ENDROOT
BRANCH   3   4
ATOM      4  C   UNL     1       6.574  -0.070   0.646  0.00  0.00    +0.000 C 
ATOM      5  C   UNL     1       7.894   0.667   0.599  0.00  0.00    +0.000 C 
ATOM      6  C   UNL     1       6.921   0.809  -0.526  0.00  0.00    +0.000 C 
ENDBRANCH   3   4
BRANCH   1   7
ATOM      7  C   UNL     1       3.697  -0.044   0.032  0.00  0.00    +0.000 C 
BRANCH   7   9
ATOM      8  N   UNL     1       2.046   2.037  -0.790  0.00  0.00    +0.000 NA
ATOM      9  C   UNL     1       2.795   1.093  -0.418  0.00  0.00    +0.000 C 
ENDBRANCH   7   9
ENDBRANCH   1   7
TORSDOF 3
