REMARK  Name = ligand_96490
REMARK  0 active torsions:
REMARK  status: ('A' for Active; 'I' for Inactive)
REMARK                            x       y       z     vdW  Elec       q    Type
REMARK                         _______ _______ _______ _____ _____    ______ ____
ROOT
ATOM      1  C   UNL     1       1.443  -0.846   0.784  0.00  0.00    +0.000 C 
ATOM      2  C   UNL     1       0.572   0.371   1.106  0.00  0.00    +0.000 C 
ATOM      3  C   UNL     1       0.319   1.398   0.002  0.00  0.00    +0.000 C 
ATOM      4  N   UNL     1      -1.122   1.743   0.204  0.00  0.00    +0.000 NA
ATOM      5  C   UNL     1      -1.316   0.326  -0.241  0.00  0.00    +0.000 C 
ATOM      6  C   UNL     1      -0.127   0.494  -1.155  0.00  0.00    +0.000 C 
ATOM      7  C   UNL     1       0.398  -0.881  -1.339  0.00  0.00    +0.000 C 
ATOM      8  N   UNL     1       0.303  -1.422   0.000  0.00  0.00    +0.000 NA
ATOM      9  C   UNL     1      -0.597  -0.554   0.787  0.00  0.00    +0.000 C 
ATOM     10  H   UNL     1      -1.480   2.429  -0.461  0.00  0.00    +0.000 HD
ENDROOT
TORSDOF 0
