REMARK  Name = ligand_96533
REMARK  0 active torsions:
REMARK  status: ('A' for Active; 'I' for Inactive)
REMARK                            x       y       z     vdW  Elec       q    Type
REMARK                         _______ _______ _______ _____ _____    ______ ____
ROOT
ATOM      1  C   UNL     1      -1.245   1.227  -0.209  0.00  0.00    +0.000 C 
ATOM      2  C   UNL     1      -1.495  -0.145   0.429  0.00  0.00    +0.000 C 
ATOM      3  C   UNL     1      -0.524   0.218   1.568  0.00  0.00    +0.000 C 
ATOM      4  C   UNL     1      -0.022   1.379   0.710  0.00  0.00    +0.000 C 
ATOM      5  N   UNL     1       1.197   1.231  -0.039  0.00  0.00    +0.000 NA
ATOM      6  C   UNL     1       1.703   0.133  -0.488  0.00  0.00    +0.000 C 
ATOM      7  N   UNL     1       1.366  -1.174  -0.353  0.00  0.00    +0.000 NA
ATOM      8  C   UNL     1       0.189  -1.681  -0.381  0.00  0.00    +0.000 C 
ATOM      9  N   UNL     1      -1.103  -1.228  -0.424  0.00  0.00    +0.000 N 
ATOM     10  H   UNL     1      -1.789  -1.980  -0.401  0.00  0.00    +0.000 HD
ENDROOT
TORSDOF 0
