REMARK  Name = ligand_965353
REMARK  4 active torsions:
REMARK  status: ('A' for Active; 'I' for Inactive)
REMARK    1  A    between atoms: N_1  and  C_2
REMARK    2  A    between atoms: C_2  and  C_3
REMARK    3  A    between atoms: C_4  and  C_5
REMARK    4  A    between atoms: C_5  and  N_6
REMARK                            x       y       z     vdW  Elec       q    Type
REMARK                         _______ _______ _______ _____ _____    ______ ____
ROOT
ATOM      1  C   UNL     1       4.755   2.223  -2.136  0.00  0.00    +0.000 C 
ATOM      2  C   UNL     1       6.221   2.711  -2.047  0.00  0.00    +0.000 C 
ATOM      3  C   UNL     1       5.738   4.117  -2.467  0.00  0.00    +0.000 C 
ATOM      4  C   UNL     1       4.317   3.701  -2.027  0.00  0.00    +0.000 C 
ENDROOT
BRANCH   1   5
ATOM      5  N   UNL     1       4.496   1.730  -3.489  0.00  0.00    +0.000 NA
ATOM      6  H   UNL     1       4.778   0.762  -3.627  0.00  0.00    +0.000 HD
ATOM      7  H   UNL     1       4.924   2.267  -4.240  0.00  0.00    +0.000 HD
ENDBRANCH   1   5
BRANCH   1   9
ATOM      8  C   UNL     1       2.997   0.925  -1.021  0.00  0.00    +0.000 C 
ATOM      9  C   UNL     1       4.292   1.277  -1.104  0.00  0.00    +0.000 C 
BRANCH   8  10
ATOM     10  C   UNL     1       2.449  -0.048  -0.032  0.00  0.00    +0.000 C 
BRANCH  10  11
ATOM     11  N   UNL     1       1.817  -1.151  -0.739  0.00  0.00    +0.000 NA
ATOM     12  H   UNL     1       1.467  -1.825  -0.061  0.00  0.00    +0.000 HD
ATOM     13  H   UNL     1       2.526  -1.638  -1.285  0.00  0.00    +0.000 HD
ENDBRANCH  10  11
ENDBRANCH   8  10
ENDBRANCH   1   9
TORSDOF 4
