REMARK  Name = ligand_965774
REMARK  7 active torsions:
REMARK  status: ('A' for Active; 'I' for Inactive)
REMARK    1  A    between atoms: N_1  and  C_2
REMARK    2  A    between atoms: C_2  and  C_3
REMARK    3  A    between atoms: C_3  and  C_4
REMARK    4  A    between atoms: C_4  and  C_5
REMARK    5  A    between atoms: C_5  and  C_6
REMARK    6  A    between atoms: C_6  and  C_7
REMARK    7  A    between atoms: C_7  and  C_8
REMARK                            x       y       z     vdW  Elec       q    Type
REMARK                         _______ _______ _______ _____ _____    ______ ____
ROOT
ATOM      1  C   UNL     1       4.470   0.701   1.361  0.00  0.00    +0.000 C 
ENDROOT
BRANCH   1   2
ATOM      2  C   UNL     1       2.943   0.693   1.346  0.00  0.00    +0.000 C 
BRANCH   2   3
ATOM      3  C   UNL     1       2.419   0.034   0.074  0.00  0.00    +0.000 C 
BRANCH   3   4
ATOM      4  N   UNL     1       0.966   0.036   0.077  0.00  0.00    +0.000 NA
ATOM      5  H   UNL     1       0.624  -0.364  -0.796  0.00  0.00    +0.000 HD
ATOM      6  H   UNL     1       0.623   0.996   0.103  0.00  0.00    +0.000 HD
ENDBRANCH   3   4
ENDBRANCH   2   3
ENDBRANCH   1   2
BRANCH   1   7
ATOM      7  C   UNL     1       4.997   1.358   2.633  0.00  0.00    +0.000 C 
BRANCH   7   8
ATOM      8  C   UNL     1       6.524   1.366   2.646  0.00  0.00    +0.000 C 
BRANCH   8   9
ATOM      9  C   UNL     1       7.046   2.023   3.920  0.00  0.00    +0.000 C 
BRANCH   9  10
ATOM     10  C   UNL     1       8.544   2.048   3.944  0.00  0.00    +0.000 C 
ATOM     11  C   UNL     1       9.253   3.179   4.009  0.00  0.00    +0.000 C 
ENDBRANCH   9  10
ENDBRANCH   8   9
ENDBRANCH   7   8
ENDBRANCH   1   7
TORSDOF 7
