REMARK  Name = ligand_966473
REMARK  2 active torsions:
REMARK  status: ('A' for Active; 'I' for Inactive)
REMARK    1  A    between atoms: C_2  and  C_3
REMARK    2  A    between atoms: C_2  and  C_5
REMARK                            x       y       z     vdW  Elec       q    Type
REMARK                         _______ _______ _______ _____ _____    ______ ____
ROOT
ATOM      1  C   UNL     1       3.094   0.648  -1.064  0.00  0.00    +0.000 A 
ATOM      2  C   UNL     1       4.155   0.156  -1.802  0.00  0.00    +0.000 A 
ATOM      3  N   UNL     1       4.437   1.118  -2.729  0.00  0.00    +0.000 N 
ATOM      4  C   UNL     1       3.566   2.150  -2.529  0.00  0.00    +0.000 A 
ATOM      5  N   UNL     1       2.744   1.899  -1.536  0.00  0.00    +0.000 NA
ATOM      6  H   UNL     1       5.158   1.079  -3.438  0.00  0.00    +0.000 HD
ENDROOT
BRANCH   1   8
ATOM      7  N   UNL     1       2.779  -1.182   0.444  0.00  0.00    +0.000 NA
ATOM      8  C   UNL     1       2.416  -0.002   0.037  0.00  0.00    +0.000 C 
ATOM      9  H   UNL     1       2.193  -1.493   1.228  0.00  0.00    +0.000 HD
BRANCH   8  10
ATOM     10  C   UNL     1       1.306   0.594   0.752  0.00  0.00    +0.000 C 
ATOM     11  N   UNL     1       0.411   1.011   1.368  0.00  0.00    +0.000 NA
ENDBRANCH   8  10
ENDBRANCH   1   8
TORSDOF 2
