REMARK  Name = ligand_966879
REMARK  0 active torsions:
REMARK  status: ('A' for Active; 'I' for Inactive)
REMARK                            x       y       z     vdW  Elec       q    Type
REMARK                         _______ _______ _______ _____ _____    ______ ____
ROOT
ATOM      1  N   UNL     1       2.969  -0.649   0.733  0.00  0.00    +0.000 NA
ATOM      2  C   UNL     1       2.446   0.056  -0.213  0.00  0.00    +0.000 C 
ATOM      3  N   UNL     1       2.817   0.139  -1.528  0.00  0.00    +0.000 N 
ATOM      4  N   UNL     1       2.117   0.851  -2.499  0.00  0.00    +0.000 NA
ATOM      5  C   UNL     1       2.381   0.302  -3.641  0.00  0.00    +0.000 C 
ATOM      6  C   UNL     1       3.306  -0.923  -3.519  0.00  0.00    +0.000 C 
ATOM      7  C   UNL     1       2.639  -2.260  -3.081  0.00  0.00    +0.000 C 
ATOM      8  C   UNL     1       3.603  -2.288  -1.887  0.00  0.00    +0.000 C 
ATOM      9  C   UNL     1       3.815  -0.775  -2.057  0.00  0.00    +0.000 C 
ATOM     10  H   UNL     1       2.419  -0.516   1.588  0.00  0.00    +0.000 HD
ENDROOT
TORSDOF 0
