REMARK  Name = ligand_966853
REMARK  1 active torsions:
REMARK  status: ('A' for Active; 'I' for Inactive)
REMARK    1  A    between atoms: C_7  and  C_8
REMARK                            x       y       z     vdW  Elec       q    Type
REMARK                         _______ _______ _______ _____ _____    ______ ____
ROOT
ATOM      1  N   UNL     1       1.222   0.521   0.384  0.00  0.00    +0.000 NA
ATOM      2  C   UNL     1       2.302  -0.056  -0.035  0.00  0.00    +0.000 C 
ATOM      3  N   UNL     1       3.029   0.473  -1.101  0.00  0.00    +0.000 N 
ATOM      4  C   UNL     1       2.748   1.615  -1.821  0.00  0.00    +0.000 A 
ATOM      5  C   UNL     1       3.726   1.701  -2.780  0.00  0.00    +0.000 A 
ATOM      6  N   UNL     1       4.607   0.659  -2.669  0.00  0.00    +0.000 NA
ATOM      7  C   UNL     1       4.167  -0.071  -1.665  0.00  0.00    +0.000 A 
ATOM      8  H   UNL     1       0.820  -0.017   1.161  0.00  0.00    +0.000 HD
ENDROOT
BRANCH   7   9
ATOM      9  C   UNL     1       4.780  -1.295  -1.276  0.00  0.00    +0.000 C 
ATOM     10  C   UNL     1       5.274  -2.348  -0.972  0.00  0.00    +0.000 C 
ENDBRANCH   7   9
TORSDOF 1
