REMARK  Name = ligand_967023
REMARK  1 active torsions:
REMARK  status: ('A' for Active; 'I' for Inactive)
REMARK    1  A    between atoms: C_2  and  C_4
REMARK                            x       y       z     vdW  Elec       q    Type
REMARK                         _______ _______ _______ _____ _____    ______ ____
ROOT
ATOM      1  N   UNL     1       2.934  -0.455  -1.320  0.00  0.00    +0.000 N 
ATOM      2  C   UNL     1       2.494  -0.078  -0.081  0.00  0.00    +0.000 C 
ATOM      3  N   UNL     1       1.471   0.706   0.040  0.00  0.00    +0.000 NA
ATOM      4  H   UNL     1       2.716   0.167  -2.085  0.00  0.00    +0.000 HD
ATOM      5  H   UNL     1       3.888  -0.805  -1.348  0.00  0.00    +0.000 HD
ATOM      6  H   UNL     1       1.090   0.913  -0.887  0.00  0.00    +0.000 HD
ENDROOT
BRANCH   2   7
ATOM      7  C   UNL     1       3.210  -0.575   1.196  0.00  0.00    +0.000 C 
ATOM      8  C   UNL     1       3.202  -2.082   1.246  0.00  0.00    +0.000 C 
ATOM      9  C   UNL     1       4.422  -2.577   1.500  0.00  0.00    +0.000 C 
ATOM     10  C   UNL     1       5.437  -1.486   1.654  0.00  0.00    +0.000 C 
ATOM     11  C   UNL     1       4.690  -0.235   1.257  0.00  0.00    +0.000 C 
ATOM     12  C   UNL     1       5.269   0.934   0.944  0.00  0.00    +0.000 C 
ENDBRANCH   2   7
TORSDOF 1
