REMARK  Name = ligand_967176
REMARK  2 active torsions:
REMARK  status: ('A' for Active; 'I' for Inactive)
REMARK    1  A    between atoms: N_3  and  C_4
REMARK    2  A    between atoms: C_4  and  C_5
REMARK                            x       y       z     vdW  Elec       q    Type
REMARK                         _______ _______ _______ _____ _____    ______ ____
ROOT
ATOM      1  C   UNL     1       4.483  -0.885   0.958  0.00  0.00    +0.000 C 
ENDROOT
BRANCH   1   2
ATOM      2  C   UNL     1       4.962  -1.896   1.946  0.00  0.00    +0.000 A 
ATOM      3  C   UNL     1       5.176  -1.798   3.307  0.00  0.00    +0.000 A 
ATOM      4  C   UNL     1       5.603  -3.068   3.765  0.00  0.00    +0.000 A 
ATOM      5  C   UNL     1       5.640  -3.905   2.674  0.00  0.00    +0.000 A 
ATOM      6  N   UNL     1       5.252  -3.187   1.573  0.00  0.00    +0.000 N 
ATOM      7  H   UNL     1       5.174  -3.552   0.632  0.00  0.00    +0.000 HD
ENDBRANCH   1   2
BRANCH   1  10
ATOM      8  N   UNL     1       2.933   0.693  -0.892  0.00  0.00    +0.000 NA
ATOM      9  C   UNL     1       2.392  -0.112  -0.051  0.00  0.00    +0.000 C 
ATOM     10  N   UNL     1       3.052  -0.976   0.761  0.00  0.00    +0.000 N 
ATOM     11  H   UNL     1       2.200   1.226  -1.374  0.00  0.00    +0.000 HD
ATOM     12  H   UNL     1       2.550  -1.314   1.574  0.00  0.00    +0.000 HD
ENDBRANCH   1  10
TORSDOF 2
