REMARK  Name = ligand_96826
REMARK  0 active torsions:
REMARK  status: ('A' for Active; 'I' for Inactive)
REMARK                            x       y       z     vdW  Elec       q    Type
REMARK                         _______ _______ _______ _____ _____    ______ ____
ROOT
ATOM      1  C   UNL     1       2.220   0.647   0.685  0.00  0.00    +0.000 C 
ATOM      2  C   UNL     1       1.830  -0.312  -0.382  0.00  0.00    +0.000 C 
ATOM      3  N   UNL     1       0.829  -1.425  -0.163  0.00  0.00    +0.000 N 
ATOM      4  C   UNL     1      -0.325  -0.757   0.041  0.00  0.00    +0.000 A 
ATOM      5  C   UNL     1      -0.311   0.605  -0.038  0.00  0.00    +0.000 A 
ATOM      6  C   UNL     1      -1.615   1.076  -0.078  0.00  0.00    +0.000 A 
ATOM      7  C   UNL     1      -2.414  -0.051   0.095  0.00  0.00    +0.000 A 
ATOM      8  N   UNL     1      -1.601  -1.178   0.184  0.00  0.00    +0.000 N 
ATOM      9  C   UNL     1       1.100   1.074  -0.241  0.00  0.00    +0.000 C 
ATOM     10  H   UNL     1       1.075  -2.261   0.360  0.00  0.00    +0.000 HD
ATOM     11  H   UNL     1      -1.918  -2.135   0.236  0.00  0.00    +0.000 HD
ENDROOT
TORSDOF 0
