REMARK  Name = ligand_968334
REMARK  5 active torsions:
REMARK  status: ('A' for Active; 'I' for Inactive)
REMARK    1  A    between atoms: N_1  and  N_2
REMARK    2  A    between atoms: C_3  and  C_4
REMARK    3  A    between atoms: C_5  and  N_6
REMARK    4  A    between atoms: C_5  and  C_7
REMARK    5  A    between atoms: C_7  and  C_8
REMARK                            x       y       z     vdW  Elec       q    Type
REMARK                         _______ _______ _______ _____ _____    ______ ____
ROOT
ATOM      1  C   UNL     1       4.493  -1.137  -0.159  0.00  0.00    +0.000 C 
ATOM      2  C   UNL     1       5.170  -2.271  -0.442  0.00  0.00    +0.000 C 
ENDROOT
BRANCH   2   3
ATOM      3  N   UNL     1       4.571  -3.462  -0.832  0.00  0.00    +0.000 N 
ATOM      4  H   UNL     1       3.589  -3.601  -0.600  0.00  0.00    +0.000 HD
ATOM      5  H   UNL     1       5.137  -4.297  -0.733  0.00  0.00    +0.000 HD
ENDBRANCH   2   3
BRANCH   1   7
ATOM      6  N   UNL     1       2.388   0.082   0.077  0.00  0.00    +0.000 NA
ATOM      7  C   UNL     1       3.008  -1.026  -0.160  0.00  0.00    +0.000 C 
BRANCH   6   8
ATOM      8  N   UNL     1       1.063   0.016   0.030  0.00  0.00    +0.000 N 
ATOM      9  H   UNL     1       0.528   0.856   0.244  0.00  0.00    +0.000 HD
ATOM     10  H   UNL     1       0.554  -0.850  -0.100  0.00  0.00    +0.000 HD
ENDBRANCH   6   8
ENDBRANCH   1   7
BRANCH   2  11
ATOM     11  C   UNL     1       6.719  -2.261  -0.400  0.00  0.00    +0.000 C 
BRANCH  11  12
ATOM     12  C   UNL     1       7.215  -3.207   0.681  0.00  0.00    +0.000 C 
ATOM     13  C   UNL     1       7.641  -4.019   1.608  0.00  0.00    +0.000 C 
ENDBRANCH  11  12
ENDBRANCH   2  11
TORSDOF 5
