REMARK  Name = ligand_968857
REMARK  0 active torsions:
REMARK  status: ('A' for Active; 'I' for Inactive)
REMARK                            x       y       z     vdW  Elec       q    Type
REMARK                         _______ _______ _______ _____ _____    ______ ____
ROOT
ATOM      1  C   UNL     1       0.390   0.637  -1.514  0.00  0.00    +0.000 C 
ATOM      2  C   UNL     1       0.807  -0.742  -1.076  0.00  0.00    +0.000 C 
ATOM      3  C   UNL     1       1.349  -0.635   0.313  0.00  0.00    +0.000 C 
ATOM      4  C   UNL     1       1.203   0.789   0.776  0.00  0.00    +0.000 C 
ATOM      5  C   UNL     1       0.175   1.403  -0.195  0.00  0.00    +0.000 C 
ATOM      6  O   UNL     1      -1.150   1.311   0.343  0.00  0.00    +0.000 OA
ATOM      7  C   UNL     1      -1.855   0.089   0.138  0.00  0.00    +0.000 C 
ATOM      8  C   UNL     1      -1.164  -1.150   0.693  0.00  0.00    +0.000 C 
ATOM      9  C   UNL     1       0.146  -1.508   0.055  0.00  0.00    +0.000 C 
ENDROOT
TORSDOF 0
