REMARK  Name = ligand_968986
REMARK  0 active torsions:
REMARK  status: ('A' for Active; 'I' for Inactive)
REMARK                            x       y       z     vdW  Elec       q    Type
REMARK                         _______ _______ _______ _____ _____    ______ ____
ROOT
ATOM      1  C   UNL     1       1.608  -1.669  -0.222  0.00  0.00    +0.000 C 
ATOM      2  C   UNL     1       0.197  -2.198   0.302  0.00  0.00    +0.000 C 
ATOM      3  C   UNL     1      -0.350  -0.935  -0.438  0.00  0.00    +0.000 C 
ATOM      4  C   UNL     1      -1.654  -0.150  -0.168  0.00  0.00    +0.000 C 
ATOM      5  C   UNL     1      -1.228   1.070   0.533  0.00  0.00    +0.000 C 
ATOM      6  O   UNL     1      -1.209   2.441   0.183  0.00  0.00    +0.000 OA
ATOM      7  C   UNL     1      -0.180   1.714  -0.442  0.00  0.00    +0.000 C 
ATOM      8  C   UNL     1       1.153   1.251   0.022  0.00  0.00    +0.000 C 
ATOM      9  C   UNL     1       1.010  -0.279   0.204  0.00  0.00    +0.000 C 
ENDROOT
TORSDOF 0
