REMARK  Name = ligand_968964
REMARK  0 active torsions:
REMARK  status: ('A' for Active; 'I' for Inactive)
REMARK                            x       y       z     vdW  Elec       q    Type
REMARK                         _______ _______ _______ _____ _____    ______ ____
ROOT
ATOM      1  C   UNL     1      -1.066   1.368   0.648  0.00  0.00    +0.000 C 
ATOM      2  C   UNL     1      -1.449   0.119  -0.163  0.00  0.00    +0.000 C 
ATOM      3  C   UNL     1      -1.095  -1.265   0.391  0.00  0.00    +0.000 C 
ATOM      4  C   UNL     1       0.400  -1.453   0.084  0.00  0.00    +0.000 C 
ATOM      5  C   UNL     1       1.297  -0.693   1.072  0.00  0.00    +0.000 C 
ATOM      6  C   UNL     1       1.484   0.796   0.732  0.00  0.00    +0.000 C 
ATOM      7  C   UNL     1       0.306   1.378  -0.052  0.00  0.00    +0.000 C 
ATOM      8  C   UNL     1      -0.254   0.382  -1.108  0.00  0.00    +0.000 C 
ATOM      9  O   UNL     1       0.523  -0.836  -1.206  0.00  0.00    +0.000 OA
ENDROOT
TORSDOF 0
