REMARK  Name = ligand_969296
REMARK  0 active torsions:
REMARK  status: ('A' for Active; 'I' for Inactive)
REMARK                            x       y       z     vdW  Elec       q    Type
REMARK                         _______ _______ _______ _____ _____    ______ ____
ROOT
ATOM      1  C   UNL     1       0.848  -1.052  -1.377  0.00  0.00    +0.000 C 
ATOM      2  C   UNL     1       0.399  -1.401   0.075  0.00  0.00    +0.000 C 
ATOM      3  C   UNL     1       1.170  -0.629   1.141  0.00  0.00    +0.000 C 
ATOM      4  C   UNL     1       1.364   0.822   0.672  0.00  0.00    +0.000 C 
ATOM      5  C   UNL     1       0.220   1.259  -0.244  0.00  0.00    +0.000 C 
ATOM      6  O   UNL     1      -0.948   1.440   0.568  0.00  0.00    +0.000 OA
ATOM      7  C   UNL     1      -1.773   0.283   0.411  0.00  0.00    +0.000 C 
ATOM      8  C   UNL     1      -0.985  -0.758  -0.356  0.00  0.00    +0.000 C 
ATOM      9  C   UNL     1      -0.123   0.149  -1.248  0.00  0.00    +0.000 C 
ENDROOT
TORSDOF 0
