REMARK  Name = ligand_969852
REMARK  2 active torsions:
REMARK  status: ('A' for Active; 'I' for Inactive)
REMARK    1  A    between atoms: C_1  and  C_2
REMARK    2  A    between atoms: C_1  and  C_5
REMARK                            x       y       z     vdW  Elec       q    Type
REMARK                         _______ _______ _______ _____ _____    ______ ____
ROOT
ATOM      1  C   UNL     1       2.511   0.026  -0.035  0.00  0.00    +0.000 C 
ATOM      2  C   UNL     1       3.358   1.073   0.004  0.00  0.00    +0.000 C 
ATOM      3  C   UNL     1       4.778   0.586  -0.037  0.00  0.00    +0.000 C 
ATOM      4  C   UNL     1       4.594  -0.900  -0.097  0.00  0.00    +0.000 C 
ATOM      5  C   UNL     1       3.286  -1.196  -0.097  0.00  0.00    +0.000 C 
ENDROOT
BRANCH   1   6
ATOM      6  C   UNL     1       1.013   0.050  -0.095  0.00  0.00    +0.000 C 
BRANCH   6   7
ATOM      7  C   UNL     1       0.288  -0.686   0.996  0.00  0.00    +0.000 C 
ATOM      8  C   UNL     1      -1.221  -0.727   1.002  0.00  0.00    +0.000 C 
ATOM      9  O   UNL     1      -0.485   0.134   1.881  0.00  0.00    +0.000 OA
ENDBRANCH   6   7
ENDBRANCH   1   6
TORSDOF 2
