REMARK  Name = ligand_969943
REMARK  0 active torsions:
REMARK  status: ('A' for Active; 'I' for Inactive)
REMARK                            x       y       z     vdW  Elec       q    Type
REMARK                         _______ _______ _______ _____ _____    ______ ____
ROOT
ATOM      1  C   UNL     1       1.304  -0.724   0.097  0.00  0.00    +0.000 C 
ATOM      2  O   UNL     1       1.426  -1.999   0.786  0.00  0.00    +0.000 OA
ATOM      3  C   UNL     1       2.837  -2.240   0.916  0.00  0.00    +0.000 C 
ATOM      4  C   UNL     1       3.415  -1.267   1.923  0.00  0.00    +0.000 C 
ATOM      5  C   UNL     1       4.666  -0.693   1.333  0.00  0.00    +0.000 C 
ATOM      6  O   UNL     1       4.854  -1.309   0.028  0.00  0.00    +0.000 OA
ATOM      7  C   UNL     1       3.474  -1.576  -0.330  0.00  0.00    +0.000 C 
ATOM      8  C   UNL     1       2.733  -0.239  -0.098  0.00  0.00    +0.000 C 
ATOM      9  C   UNL     1       3.372   0.057   1.252  0.00  0.00    +0.000 C 
ENDROOT
TORSDOF 0
