REMARK  Name = ligand_970231
REMARK  2 active torsions:
REMARK  status: ('A' for Active; 'I' for Inactive)
REMARK    1  A    between atoms: C_4  and  O_5
REMARK    2  A    between atoms: O_5  and  C_6
REMARK                            x       y       z     vdW  Elec       q    Type
REMARK                         _______ _______ _______ _____ _____    ______ ____
ROOT
ATOM      1  O   UNL     1       1.476  -0.594   1.398  0.00  0.00    +0.000 OA
ENDROOT
BRANCH   1   5
ATOM      2  C   UNL     1       0.149   0.968  -0.138  0.00  0.00    +0.000 C 
ATOM      3  O   UNL     1      -1.078   0.253  -0.403  0.00  0.00    +0.000 OA
ATOM      4  C   UNL     1      -0.406  -1.014  -0.229  0.00  0.00    +0.000 C 
ATOM      5  C   UNL     1       0.933  -0.331   0.082  0.00  0.00    +0.000 C 
ENDBRANCH   1   5
BRANCH   1   6
ATOM      6  C   UNL     1       2.650   0.207   1.671  0.00  0.00    +0.000 C 
ATOM      7  C   UNL     1       3.950  -0.123   0.923  0.00  0.00    +0.000 C 
ATOM      8  O   UNL     1       4.700  -0.176   2.160  0.00  0.00    +0.000 OA
ATOM      9  C   UNL     1       3.460  -0.196   2.914  0.00  0.00    +0.000 C 
ENDBRANCH   1   6
TORSDOF 2
