REMARK  Name = ligand_970382
REMARK  0 active torsions:
REMARK  status: ('A' for Active; 'I' for Inactive)
REMARK                            x       y       z     vdW  Elec       q    Type
REMARK                         _______ _______ _______ _____ _____    ______ ____
ROOT
ATOM      1  C   UNL     1      -1.072   1.002  -0.016  0.00  0.00    +0.000 C 
ATOM      2  O   UNL     1       0.204   1.634  -0.079  0.00  0.00    +0.000 OA
ATOM      3  C   UNL     1       1.395   0.851  -0.085  0.00  0.00    +0.000 C 
ATOM      4  C   UNL     1       1.224  -0.613   0.088  0.00  0.00    +0.000 C 
ATOM      5  O   UNL     1       1.834  -1.044   1.290  0.00  0.00    +0.000 OA
ATOM      6  C   UNL     1       1.593  -2.511   1.043  0.00  0.00    +0.000 C 
ATOM      7  C   UNL     1       0.322  -2.554   0.625  0.00  0.00    +0.000 C 
ATOM      8  C   UNL     1      -0.080  -1.232   0.208  0.00  0.00    +0.000 C 
ATOM      9  C   UNL     1      -1.178  -0.506   0.044  0.00  0.00    +0.000 C 
ENDROOT
TORSDOF 0
