REMARK  Name = ligand_970591
REMARK  1 active torsions:
REMARK  status: ('A' for Active; 'I' for Inactive)
REMARK    1  A    between atoms: C_1  and  C_2
REMARK                            x       y       z     vdW  Elec       q    Type
REMARK                         _______ _______ _______ _____ _____    ______ ____
ROOT
ATOM      1  C   UNL     1       1.638   0.009  -0.454  0.00  0.00    +0.000 C 
ATOM      2  C   UNL     1       3.016  -0.221   0.072  0.00  0.00    +0.000 C 
ATOM      3  C   UNL     1       3.673   0.900   0.836  0.00  0.00    +0.000 C 
ATOM      4  C   UNL     1       4.233   0.478  -0.496  0.00  0.00    +0.000 C 
ATOM      5  C   UNL     1       5.457  -0.308  -0.510  0.00  0.00    +0.000 C 
ATOM      6  C   UNL     1       5.479  -1.625  -0.261  0.00  0.00    +0.000 C 
ATOM      7  C   UNL     1       4.239  -2.341   0.087  0.00  0.00    +0.000 C 
ATOM      8  O   UNL     1       4.200  -3.562   0.064  0.00  0.00    +0.000 OA
ATOM      9  O   UNL     1       3.208  -1.575   0.547  0.00  0.00    +0.000 OA
ENDROOT
TORSDOF 0
