REMARK  Name = ligand_971106
REMARK  1 active torsions:
REMARK  status: ('A' for Active; 'I' for Inactive)
REMARK    1  A    between atoms: C_1  and  C_2
REMARK                            x       y       z     vdW  Elec       q    Type
REMARK                         _______ _______ _______ _____ _____    ______ ____
ROOT
ATOM      1  C   UNL     1       1.037  -0.143  -0.124  0.00  0.00    +0.000 C 
ATOM      2  C   UNL     1       2.537   0.079  -0.096  0.00  0.00    +0.000 C 
ATOM      3  C   UNL     1       3.365  -0.894   0.814  0.00  0.00    +0.000 C 
ATOM      4  C   UNL     1       4.498  -0.677  -0.239  0.00  0.00    +0.000 C 
ATOM      5  C   UNL     1       3.336  -0.597  -1.276  0.00  0.00    +0.000 C 
ATOM      6  C   UNL     1       5.274   0.635  -0.025  0.00  0.00    +0.000 C 
ATOM      7  C   UNL     1       4.398   1.873  -0.266  0.00  0.00    +0.000 C 
ATOM      8  C   UNL     1       2.960   1.596   0.145  0.00  0.00    +0.000 C 
ATOM      9  O   UNL     1       2.238   2.500   0.567  0.00  0.00    +0.000 OA
ENDROOT
TORSDOF 0
