REMARK  Name = ligand_97198
REMARK  0 active torsions:
REMARK  status: ('A' for Active; 'I' for Inactive)
REMARK                            x       y       z     vdW  Elec       q    Type
REMARK                         _______ _______ _______ _____ _____    ______ ____
ROOT
ATOM      1  C   UNL     1      -1.144   0.366   1.004  0.00  0.00    +0.000 C 
ATOM      2  C   UNL     1      -1.246   0.536  -0.468  0.00  0.00    +0.000 C 
ATOM      3  C   UNL     1      -0.489  -0.380  -1.393  0.00  0.00    +0.000 C 
ATOM      4  C   UNL     1       0.218  -1.555  -0.792  0.00  0.00    +0.000 C 
ATOM      5  C   UNL     1       1.456  -1.134  -0.014  0.00  0.00    +0.000 C 
ATOM      6  C   UNL     1       1.352   0.137   0.767  0.00  0.00    +0.000 C 
ATOM      7  C   UNL     1       0.727   1.347   0.102  0.00  0.00    +0.000 C 
ATOM      8  C   UNL     1       0.009   1.027  -1.137  0.00  0.00    +0.000 C 
ATOM      9  N   UNL     1       0.186   0.855   1.297  0.00  0.00    +0.000 NA
ENDROOT
TORSDOF 0
