REMARK  Name = ligand_972325
REMARK  1 active torsions:
REMARK  status: ('A' for Active; 'I' for Inactive)
REMARK    1  A    between atoms: C_1  and  C_2
REMARK                            x       y       z     vdW  Elec       q    Type
REMARK                         _______ _______ _______ _____ _____    ______ ____
ROOT
ATOM      1  C   UNL     1       1.517  -0.464   0.060  0.00  0.00    +0.000 C 
ATOM      2  C   UNL     1       2.868   0.248   0.051  0.00  0.00    +0.000 C 
ATOM      3  C   UNL     1       4.048  -0.693   0.300  0.00  0.00    +0.000 C 
ATOM      4  C   UNL     1       5.393   0.029   0.021  0.00  0.00    +0.000 C 
ATOM      5  C   UNL     1       5.372   1.493   0.424  0.00  0.00    +0.000 C 
ATOM      6  C   UNL     1       4.285   2.029   1.002  0.00  0.00    +0.000 C 
ATOM      7  C   UNL     1       3.065   1.165   1.259  0.00  0.00    +0.000 C 
ATOM      8  C   UNL     1       3.388   0.155   2.369  0.00  0.00    +0.000 C 
ATOM      9  O   UNL     1       3.975  -0.996   1.714  0.00  0.00    +0.000 OA
ENDROOT
TORSDOF 0
