REMARK  Name = ligand_972620
REMARK  1 active torsions:
REMARK  status: ('A' for Active; 'I' for Inactive)
REMARK    1  A    between atoms: C_1  and  C_2
REMARK                            x       y       z     vdW  Elec       q    Type
REMARK                         _______ _______ _______ _____ _____    ______ ____
ROOT
ATOM      1  C   UNL     1       1.049  -0.244  -0.026  0.00  0.00    +0.000 C 
ATOM      2  C   UNL     1       2.540   0.023   0.014  0.00  0.00    +0.000 C 
ATOM      3  C   UNL     1       3.357  -1.133   0.515  0.00  0.00    +0.000 C 
ATOM      4  C   UNL     1       4.599  -0.516   1.088  0.00  0.00    +0.000 C 
ATOM      5  O   UNL     1       4.435   0.932   1.044  0.00  0.00    +0.000 OA
ATOM      6  C   UNL     1       2.994   1.133   0.988  0.00  0.00    +0.000 C 
ATOM      7  C   UNL     1       2.509   0.878   2.420  0.00  0.00    +0.000 C 
ATOM      8  O   UNL     1       2.748  -0.480   2.844  0.00  0.00    +0.000 OA
ATOM      9  C   UNL     1       3.635  -1.255   1.988  0.00  0.00    +0.000 C 
ENDROOT
TORSDOF 0
