REMARK  Name = ligand_972730
REMARK  1 active torsions:
REMARK  status: ('A' for Active; 'I' for Inactive)
REMARK    1  A    between atoms: C_1  and  C_2
REMARK                            x       y       z     vdW  Elec       q    Type
REMARK                         _______ _______ _______ _____ _____    ______ ____
ROOT
ATOM      1  C   UNL     1       1.190  -0.081   0.197  0.00  0.00    +0.000 C 
ATOM      2  C   UNL     1       2.678   0.057  -0.091  0.00  0.00    +0.000 C 
ATOM      3  C   UNL     1       3.033   0.881  -1.355  0.00  0.00    +0.000 C 
ATOM      4  O   UNL     1       3.041  -0.353  -2.143  0.00  0.00    +0.000 OA
ATOM      5  C   UNL     1       3.304  -1.100  -0.910  0.00  0.00    +0.000 C 
ATOM      6  C   UNL     1       4.746  -1.370  -0.642  0.00  0.00    +0.000 C 
ATOM      7  C   UNL     1       5.688  -0.420  -0.723  0.00  0.00    +0.000 C 
ATOM      8  C   UNL     1       5.498   0.979  -1.054  0.00  0.00    +0.000 C 
ATOM      9  C   UNL     1       4.338   1.598  -1.325  0.00  0.00    +0.000 C 
ENDROOT
TORSDOF 0
