REMARK  Name = ligand_972753
REMARK  0 active torsions:
REMARK  status: ('A' for Active; 'I' for Inactive)
REMARK                            x       y       z     vdW  Elec       q    Type
REMARK                         _______ _______ _______ _____ _____    ______ ____
ROOT
ATOM      1  C   UNL     1       1.004  -0.094   0.149  0.00  0.00    +0.000 C 
ATOM      2  C   UNL     1       2.307   0.084  -0.109  0.00  0.00    +0.000 C 
ATOM      3  C   UNL     1       3.295  -1.013  -0.255  0.00  0.00    +0.000 C 
ATOM      4  O   UNL     1       3.783  -1.436  -1.537  0.00  0.00    +0.000 OA
ATOM      5  C   UNL     1       4.535  -0.411  -0.891  0.00  0.00    +0.000 C 
ATOM      6  C   UNL     1       4.239   1.016  -1.263  0.00  0.00    +0.000 C 
ATOM      7  C   UNL     1       3.014   1.347  -0.431  0.00  0.00    +0.000 C 
ATOM      8  C   UNL     1       2.373   2.708  -0.445  0.00  0.00    +0.000 C 
ATOM      9  O   UNL     1       3.292   2.331   0.588  0.00  0.00    +0.000 OA
ENDROOT
TORSDOF 0
