REMARK  Name = ligand_973425
REMARK  4 active torsions:
REMARK  status: ('A' for Active; 'I' for Inactive)
REMARK    1  A    between atoms: C_1  and  C_2
REMARK    2  A    between atoms: C_4  and  O_5
REMARK    3  A    between atoms: O_5  and  C_6
REMARK    4  A    between atoms: C_6  and  C_8
REMARK                            x       y       z     vdW  Elec       q    Type
REMARK                         _______ _______ _______ _____ _____    ______ ____
ROOT
ATOM      1  O   UNL     1       2.420  -1.562  -2.130  0.00  0.00    +0.000 OA
ENDROOT
BRANCH   1   5
ATOM      2  C   UNL     1       0.911  -0.081  -0.062  0.00  0.00    +0.000 C 
ATOM      3  C   UNL     1       2.401  -0.135  -0.053  0.00  0.00    +0.000 C 
ATOM      4  C   UNL     1       3.185   0.596  -1.109  0.00  0.00    +0.000 C 
ATOM      5  C   UNL     1       3.181  -0.908  -1.089  0.00  0.00    +0.000 C 
ENDBRANCH   1   5
BRANCH   1   6
ATOM      6  C   UNL     1       3.126  -2.392  -2.949  0.00  0.00    +0.000 C 
ATOM      7  O   UNL     1       4.321  -2.631  -2.875  0.00  0.00    +0.000 OA
BRANCH   6   8
ATOM      8  C   UNL     1       2.317  -3.009  -3.975  0.00  0.00    +0.000 C 
ATOM      9  C   UNL     1       1.712  -3.549  -4.859  0.00  0.00    +0.000 C 
ENDBRANCH   6   8
ENDBRANCH   1   6
TORSDOF 3
