REMARK  Name = ligand_973674
REMARK  0 active torsions:
REMARK  status: ('A' for Active; 'I' for Inactive)
REMARK                            x       y       z     vdW  Elec       q    Type
REMARK                         _______ _______ _______ _____ _____    ______ ____
ROOT
ATOM      1  C   UNL     1       1.210  -0.012   0.106  0.00  0.00    +0.000 C 
ATOM      2  C   UNL     1       2.547  -0.006   0.053  0.00  0.00    +0.000 C 
ATOM      3  C   UNL     1       3.412   1.200  -0.134  0.00  0.00    +0.000 C 
ATOM      4  C   UNL     1       4.724   0.621  -0.561  0.00  0.00    +0.000 C 
ATOM      5  C   UNL     1       6.040   1.267  -0.222  0.00  0.00    +0.000 C 
ATOM      6  C   UNL     1       5.554   1.253  -1.644  0.00  0.00    +0.000 C 
ATOM      7  O   UNL     1       4.694  -0.822  -0.469  0.00  0.00    +0.000 OA
ATOM      8  C   UNL     1       3.437  -1.149   0.032  0.00  0.00    +0.000 C 
ATOM      9  C   UNL     1       3.189  -2.375   0.499  0.00  0.00    +0.000 C 
ENDROOT
TORSDOF 0
