REMARK  Name = ligand_973656
REMARK  1 active torsions:
REMARK  status: ('A' for Active; 'I' for Inactive)
REMARK    1  A    between atoms: C_1  and  C_2
REMARK                            x       y       z     vdW  Elec       q    Type
REMARK                         _______ _______ _______ _____ _____    ______ ____
ROOT
ATOM      1  C   UNL     1       1.027  -0.053  -0.137  0.00  0.00    +0.000 C 
ATOM      2  C   UNL     1       2.530   0.139   0.000  0.00  0.00    +0.000 C 
ATOM      3  C   UNL     1       3.080   1.192  -1.005  0.00  0.00    +0.000 C 
ATOM      4  C   UNL     1       4.555   1.162  -0.806  0.00  0.00    +0.000 C 
ATOM      5  C   UNL     1       5.838   0.897  -1.540  0.00  0.00    +0.000 C 
ATOM      6  C   UNL     1       4.900  -0.227  -1.393  0.00  0.00    +0.000 C 
ATOM      7  C   UNL     1       4.527  -1.232  -0.383  0.00  0.00    +0.000 C 
ATOM      8  O   UNL     1       5.287  -2.106  -0.009  0.00  0.00    +0.000 OA
ATOM      9  O   UNL     1       3.191  -1.167  -0.068  0.00  0.00    +0.000 OA
ENDROOT
TORSDOF 0
