REMARK  Name = ligand_973633
REMARK  1 active torsions:
REMARK  status: ('A' for Active; 'I' for Inactive)
REMARK    1  A    between atoms: C_1  and  C_2
REMARK                            x       y       z     vdW  Elec       q    Type
REMARK                         _______ _______ _______ _____ _____    ______ ____
ROOT
ATOM      1  C   UNL     1       0.945  -0.279  -0.165  0.00  0.00    +0.000 C 
ATOM      2  C   UNL     1       2.417  -0.158   0.095  0.00  0.00    +0.000 C 
ATOM      3  C   UNL     1       3.019   1.051   0.202  0.00  0.00    +0.000 C 
ATOM      4  C   UNL     1       4.429   1.225   0.535  0.00  0.00    +0.000 C 
ATOM      5  C   UNL     1       5.129   1.799   1.711  0.00  0.00    +0.000 C 
ATOM      6  C   UNL     1       4.690   0.368   1.783  0.00  0.00    +0.000 C 
ATOM      7  C   UNL     1       5.258  -0.942   1.362  0.00  0.00    +0.000 C 
ATOM      8  C   UNL     1       4.467  -1.505   0.154  0.00  0.00    +0.000 C 
ATOM      9  O   UNL     1       3.035  -1.393   0.275  0.00  0.00    +0.000 OA
ENDROOT
TORSDOF 0
