REMARK  Name = ligand_974388
REMARK  1 active torsions:
REMARK  status: ('A' for Active; 'I' for Inactive)
REMARK    1  A    between atoms: C_1  and  C_2
REMARK                            x       y       z     vdW  Elec       q    Type
REMARK                         _______ _______ _______ _____ _____    ______ ____
ROOT
ATOM      1  C   UNL     1       0.869  -0.009  -0.029  0.00  0.00    +0.000 C 
ATOM      2  C   UNL     1       2.340   0.259  -0.155  0.00  0.00    +0.000 C 
ATOM      3  C   UNL     1       3.238  -0.735  -0.302  0.00  0.00    +0.000 C 
ATOM      4  C   UNL     1       4.704  -0.663  -0.328  0.00  0.00    +0.000 C 
ATOM      5  O   UNL     1       5.438   0.150   0.603  0.00  0.00    +0.000 OA
ATOM      6  C   UNL     1       5.454   0.567  -0.772  0.00  0.00    +0.000 C 
ATOM      7  C   UNL     1       4.751   1.761  -1.246  0.00  0.00    +0.000 C 
ATOM      8  C   UNL     1       3.530   2.190  -0.906  0.00  0.00    +0.000 C 
ATOM      9  O   UNL     1       2.651   1.601  -0.035  0.00  0.00    +0.000 OA
ENDROOT
TORSDOF 0
