REMARK  Name = ligand_974349
REMARK  2 active torsions:
REMARK  status: ('A' for Active; 'I' for Inactive)
REMARK    1  A    between atoms: C_1  and  C_2
REMARK    2  A    between atoms: C_2  and  C_3
REMARK                            x       y       z     vdW  Elec       q    Type
REMARK                         _______ _______ _______ _____ _____    ______ ____
ROOT
ATOM      1  C   UNL     1       1.307   0.104  -0.200  0.00  0.00    +0.000 C 
ATOM      2  C   UNL     1       2.811   0.107   0.106  0.00  0.00    +0.000 C 
ATOM      3  C   UNL     1       3.021   0.195   1.619  0.00  0.00    +0.000 C 
ATOM      4  C   UNL     1       3.490   1.228  -0.626  0.00  0.00    +0.000 C 
ATOM      5  O   UNL     1       4.852   1.498  -0.272  0.00  0.00    +0.000 OA
ATOM      6  C   UNL     1       4.641   0.770  -1.489  0.00  0.00    +0.000 C 
ATOM      7  C   UNL     1       4.609  -0.757  -1.410  0.00  0.00    +0.000 C 
ATOM      8  O   UNL     1       4.830  -1.355  -0.128  0.00  0.00    +0.000 OA
ATOM      9  C   UNL     1       3.465  -1.103  -0.489  0.00  0.00    +0.000 C 
ENDROOT
TORSDOF 0
