REMARK  Name = ligand_974869
REMARK  4 active torsions:
REMARK  status: ('A' for Active; 'I' for Inactive)
REMARK    1  A    between atoms: C_1  and  C_2
REMARK    2  A    between atoms: C_2  and  O_7
REMARK    3  A    between atoms: C_5  and  O_6
REMARK    4  A    between atoms: O_7  and  C_8
REMARK                            x       y       z     vdW  Elec       q    Type
REMARK                         _______ _______ _______ _____ _____    ______ ____
ROOT
ATOM      1  C   UNL     1       0.980  -0.158   0.047  0.00  0.00    +0.000 C 
ATOM      2  C   UNL     1       2.499  -0.026  -0.099  0.00  0.00    +0.000 C 
ATOM      3  C   UNL     1       3.232  -1.136   0.719  0.00  0.00    +0.000 C 
ATOM      4  C   UNL     1       4.217  -0.079   1.233  0.00  0.00    +0.000 C 
ATOM      5  C   UNL     1       3.204   1.017   0.844  0.00  0.00    +0.000 C 
ENDROOT
BRANCH   5   6
ATOM      6  O   UNL     1       2.433   1.570   1.937  0.00  0.00    +0.000 OA
ATOM      7  H   UNL     1       2.189   0.816   2.499  0.00  0.00    +0.000 HD
ENDBRANCH   5   6
BRANCH   2   8
ATOM      8  O   UNL     1       2.892  -0.021  -1.497  0.00  0.00    +0.000 OA
BRANCH   8   9
ATOM      9  C   UNL     1       2.417   1.021  -2.249  0.00  0.00    +0.000 C 
ATOM     10  C   UNL     1       2.605   1.075  -3.568  0.00  0.00    +0.000 C 
ENDBRANCH   8   9
ENDBRANCH   2   8
TORSDOF 3
