REMARK  Name = ligand_975416
REMARK  1 active torsions:
REMARK  status: ('A' for Active; 'I' for Inactive)
REMARK    1  A    between atoms: C_1  and  C_2
REMARK                            x       y       z     vdW  Elec       q    Type
REMARK                         _______ _______ _______ _____ _____    ______ ____
ROOT
ATOM      1  C   UNL     1       1.080   0.676   0.319  0.00  0.00    +0.000 C 
ATOM      2  C   UNL     1       2.339  -0.130  -0.015  0.00  0.00    +0.000 C 
ATOM      3  C   UNL     1       3.242   0.653  -0.981  0.00  0.00    +0.000 C 
ATOM      4  C   UNL     1       3.066  -0.046  -2.294  0.00  0.00    +0.000 C 
ATOM      5  C   UNL     1       2.375  -1.185  -2.183  0.00  0.00    +0.000 C 
ATOM      6  C   UNL     1       2.002  -1.439  -0.775  0.00  0.00    +0.000 C 
ATOM      7  C   UNL     1       2.516  -2.792  -0.219  0.00  0.00    +0.000 C 
ATOM      8  C   UNL     1       1.176  -2.787   0.520  0.00  0.00    +0.000 C 
ATOM      9  O   UNL     1       0.635  -1.894  -0.502  0.00  0.00    +0.000 OA
ENDROOT
TORSDOF 0
