REMARK  Name = ligand_975779
REMARK  1 active torsions:
REMARK  status: ('A' for Active; 'I' for Inactive)
REMARK    1  A    between atoms: C_1  and  C_2
REMARK                            x       y       z     vdW  Elec       q    Type
REMARK                         _______ _______ _______ _____ _____    ______ ____
ROOT
ATOM      1  C   UNL     1       1.060   0.037   0.292  0.00  0.00    +0.000 C 
ATOM      2  C   UNL     1       2.487  -0.237  -0.093  0.00  0.00    +0.000 C 
ATOM      3  C   UNL     1       2.851  -1.453  -0.581  0.00  0.00    +0.000 C 
ATOM      4  C   UNL     1       4.148  -1.962  -1.033  0.00  0.00    +0.000 C 
ATOM      5  C   UNL     1       5.345  -1.397  -0.782  0.00  0.00    +0.000 C 
ATOM      6  C   UNL     1       5.458  -0.178   0.006  0.00  0.00    +0.000 C 
ATOM      7  C   UNL     1       5.867   1.218  -0.289  0.00  0.00    +0.000 C 
ATOM      8  C   UNL     1       4.493   0.820  -0.668  0.00  0.00    +0.000 C 
ATOM      9  O   UNL     1       3.307   0.878   0.130  0.00  0.00    +0.000 OA
ENDROOT
TORSDOF 0
