REMARK  Name = ligand_975899
REMARK  1 active torsions:
REMARK  status: ('A' for Active; 'I' for Inactive)
REMARK    1  A    between atoms: C_7  and  C_8
REMARK                            x       y       z     vdW  Elec       q    Type
REMARK                         _______ _______ _______ _____ _____    ______ ____
ROOT
ATOM      1  C   UNL     1      -2.419   0.072  -0.153  0.00  0.00    +0.000 C 
ATOM      2  C   UNL     1      -1.088   0.014   0.034  0.00  0.00    +0.000 C 
ATOM      3  C   UNL     1      -0.310   1.244  -0.024  0.00  0.00    +0.000 C 
ATOM      4  C   UNL     1       1.030   1.257   0.022  0.00  0.00    +0.000 C 
ATOM      5  C   UNL     1       1.868   0.016   0.077  0.00  0.00    +0.000 C 
ATOM      6  C   UNL     1       1.077  -1.229  -0.324  0.00  0.00    +0.000 C 
ATOM      7  C   UNL     1      -0.301  -1.251   0.351  0.00  0.00    +0.000 C 
ENDROOT
BRANCH   7   8
ATOM      8  C   UNL     1      -1.013  -2.525  -0.077  0.00  0.00    +0.000 C 
ATOM      9  O   UNL     1      -1.409  -3.380   0.712  0.00  0.00    +0.000 OA
ENDBRANCH   7   8
TORSDOF 1
