REMARK  Name = ligand_975813
REMARK  2 active torsions:
REMARK  status: ('A' for Active; 'I' for Inactive)
REMARK    1  A    between atoms: C_1  and  C_2
REMARK    2  A    between atoms: C_2  and  C_3
REMARK                            x       y       z     vdW  Elec       q    Type
REMARK                         _______ _______ _______ _____ _____    ______ ____
ROOT
ATOM      1  C   UNL     1       1.065   0.099  -0.136  0.00  0.00    +0.000 C 
ATOM      2  C   UNL     1       2.575   0.315   0.004  0.00  0.00    +0.000 C 
ATOM      3  C   UNL     1       2.988   0.058   1.461  0.00  0.00    +0.000 C 
ATOM      4  C   UNL     1       2.973   1.737  -0.436  0.00  0.00    +0.000 C 
ATOM      5  C   UNL     1       4.428   1.587  -0.868  0.00  0.00    +0.000 C 
ATOM      6  C   UNL     1       4.411   0.290  -1.667  0.00  0.00    +0.000 C 
ATOM      7  C   UNL     1       5.348  -0.858  -1.282  0.00  0.00    +0.000 C 
ATOM      8  O   UNL     1       4.340  -1.436  -0.415  0.00  0.00    +0.000 OA
ATOM      9  C   UNL     1       3.325  -0.575  -1.001  0.00  0.00    +0.000 C 
ENDROOT
TORSDOF 0
