REMARK  Name = ligand_976449
REMARK  2 active torsions:
REMARK  status: ('A' for Active; 'I' for Inactive)
REMARK    1  A    between atoms: C_1  and  C_2
REMARK    2  A    between atoms: C_6  and  C_7
REMARK                            x       y       z     vdW  Elec       q    Type
REMARK                         _______ _______ _______ _____ _____    ______ ____
ROOT
ATOM      1  C   UNL     1       1.259  -0.100  -0.107  0.00  0.00    +0.000 C 
ATOM      2  C   UNL     1       2.761   0.158  -0.211  0.00  0.00    +0.000 C 
ATOM      3  C   UNL     1       3.157   1.487   0.448  0.00  0.00    +0.000 C 
ATOM      4  C   UNL     1       2.648   2.748  -0.246  0.00  0.00    +0.000 C 
ATOM      5  C   UNL     1       3.349   3.314  -1.449  0.00  0.00    +0.000 C 
ATOM      6  C   UNL     1       4.156   2.829  -2.407  0.00  0.00    +0.000 C 
ATOM      7  C   UNL     1       4.708   1.473  -2.754  0.00  0.00    +0.000 C 
ATOM      8  C   UNL     1       4.494   0.283  -1.832  0.00  0.00    +0.000 C 
ATOM      9  O   UNL     1       3.106   0.094  -1.590  0.00  0.00    +0.000 OA
ENDROOT
TORSDOF 0
