REMARK  Name = ligand_977037
REMARK  3 active torsions:
REMARK  status: ('A' for Active; 'I' for Inactive)
REMARK    1  A    between atoms: C_1  and  C_2
REMARK    2  A    between atoms: C_5  and  C_6
REMARK    3  A    between atoms: C_8  and  O_9
REMARK                            x       y       z     vdW  Elec       q    Type
REMARK                         _______ _______ _______ _____ _____    ______ ____
ROOT
ATOM      1  C   UNL     1       0.877   0.054   0.085  0.00  0.00    +0.000 C 
ATOM      2  C   UNL     1       2.397   0.051   0.027  0.00  0.00    +0.000 C 
ATOM      3  C   UNL     1       2.955  -1.162  -0.662  0.00  0.00    +0.000 C 
ATOM      4  C   UNL     1       3.990  -0.851  -1.450  0.00  0.00    +0.000 C 
ATOM      5  C   UNL     1       4.290   0.620  -1.439  0.00  0.00    +0.000 C 
ATOM      6  C   UNL     1       3.021   1.208  -0.792  0.00  0.00    +0.000 C 
ENDROOT
BRANCH   5   7
ATOM      7  C   UNL     1       5.525   0.946  -0.618  0.00  0.00    +0.000 C 
ATOM      8  O   UNL     1       6.489   0.196  -0.478  0.00  0.00    +0.000 OA
ENDBRANCH   5   7
BRANCH   6   9
ATOM      9  O   UNL     1       2.143   1.679  -1.820  0.00  0.00    +0.000 OA
ATOM     10  H   UNL     1       1.906   0.913  -2.375  0.00  0.00    +0.000 HD
ENDBRANCH   6   9
TORSDOF 2
