REMARK  Name = ligand_977236
REMARK  3 active torsions:
REMARK  status: ('A' for Active; 'I' for Inactive)
REMARK    1  A    between atoms: C_1  and  C_2
REMARK    2  A    between atoms: C_5  and  C_6
REMARK    3  A    between atoms: C_5  and  O_7
REMARK                            x       y       z     vdW  Elec       q    Type
REMARK                         _______ _______ _______ _____ _____    ______ ____
ROOT
ATOM      1  C   UNL     1       0.926  -0.252   0.147  0.00  0.00    +0.000 C 
ATOM      2  C   UNL     1       2.453  -0.103   0.129  0.00  0.00    +0.000 C 
ATOM      3  C   UNL     1       2.829   1.250  -0.499  0.00  0.00    +0.000 C 
ATOM      4  C   UNL     1       3.925   1.266  -1.571  0.00  0.00    +0.000 C 
ATOM      5  C   UNL     1       4.179  -0.030  -2.358  0.00  0.00    +0.000 C 
ATOM      6  C   UNL     1       3.479  -0.038  -3.719  0.00  0.00    +0.000 C 
ATOM      7  C   UNL     1       3.833  -1.275  -1.606  0.00  0.00    +0.000 C 
ATOM      8  C   UNL     1       3.070  -1.313  -0.506  0.00  0.00    +0.000 C 
ENDROOT
BRANCH   5   9
ATOM      9  O   UNL     1       5.586  -0.117  -2.613  0.00  0.00    +0.000 OA
ATOM     10  H   UNL     1       5.862   0.726  -3.012  0.00  0.00    +0.000 HD
ENDBRANCH   5   9
TORSDOF 1
