REMARK  Name = ligand_977201
REMARK  3 active torsions:
REMARK  status: ('A' for Active; 'I' for Inactive)
REMARK    1  A    between atoms: C_1  and  C_2
REMARK    2  A    between atoms: C_2  and  C_3
REMARK    3  A    between atoms: C_6  and  O_7
REMARK                            x       y       z     vdW  Elec       q    Type
REMARK                         _______ _______ _______ _____ _____    ______ ____
ROOT
ATOM      1  C   UNL     1       0.980   0.132   0.105  0.00  0.00    +0.000 C 
ATOM      2  C   UNL     1       2.519   0.106   0.027  0.00  0.00    +0.000 C 
ATOM      3  C   UNL     1       3.069   0.463   1.420  0.00  0.00    +0.000 C 
ATOM      4  C   UNL     1       3.026   1.147  -0.997  0.00  0.00    +0.000 C 
ATOM      5  C   UNL     1       2.711   0.775  -2.449  0.00  0.00    +0.000 C 
ATOM      6  C   UNL     1       3.177  -0.634  -2.813  0.00  0.00    +0.000 C 
ATOM      7  C   UNL     1       2.692  -1.681  -1.811  0.00  0.00    +0.000 C 
ATOM      8  C   UNL     1       3.017  -1.304  -0.363  0.00  0.00    +0.000 C 
ENDROOT
BRANCH   6   9
ATOM      9  O   UNL     1       4.602  -0.668  -2.901  0.00  0.00    +0.000 OA
ATOM     10  H   UNL     1       4.975  -0.435  -2.034  0.00  0.00    +0.000 HD
ENDBRANCH   6   9
TORSDOF 1
