REMARK  Name = ligand_977910
REMARK  2 active torsions:
REMARK  status: ('A' for Active; 'I' for Inactive)
REMARK    1  A    between atoms: C_1  and  C_2
REMARK    2  A    between atoms: C_3  and  C_4
REMARK                            x       y       z     vdW  Elec       q    Type
REMARK                         _______ _______ _______ _____ _____    ______ ____
ROOT
ATOM      1  C   UNL     1       0.663   0.529   0.149  0.00  0.00    +0.000 C 
ATOM      2  C   UNL     1       2.088   0.027   0.058  0.00  0.00    +0.000 C 
ATOM      3  C   UNL     1       2.301  -1.273  -0.231  0.00  0.00    +0.000 C 
ATOM      4  C   UNL     1       3.534  -2.138  -0.312  0.00  0.00    +0.000 C 
ATOM      5  C   UNL     1       4.887  -1.558  -0.715  0.00  0.00    +0.000 C 
ATOM      6  O   UNL     1       5.386  -0.668   0.273  0.00  0.00    +0.000 OA
ATOM      7  C   UNL     1       5.542   0.660  -0.207  0.00  0.00    +0.000 C 
ATOM      8  C   UNL     1       4.224   1.302  -0.627  0.00  0.00    +0.000 C 
ATOM      9  C   UNL     1       3.118   1.084   0.404  0.00  0.00    +0.000 C 
ENDROOT
TORSDOF 0
