REMARK  Name = ligand_978110
REMARK  0 active torsions:
REMARK  status: ('A' for Active; 'I' for Inactive)
REMARK                            x       y       z     vdW  Elec       q    Type
REMARK                         _______ _______ _______ _____ _____    ______ ____
ROOT
ATOM      1  C   UNL     1       0.979   0.002  -0.050  0.00  0.00    +0.000 C 
ATOM      2  C   UNL     1       2.321   0.045   0.029  0.00  0.00    +0.000 C 
ATOM      3  C   UNL     1       3.100   1.319  -0.192  0.00  0.00    +0.000 C 
ATOM      4  C   UNL     1       3.658   1.887   1.081  0.00  0.00    +0.000 C 
ATOM      5  C   UNL     1       3.835   1.244   2.246  0.00  0.00    +0.000 C 
ATOM      6  O   UNL     1       3.581  -0.099   2.515  0.00  0.00    +0.000 OA
ATOM      7  C   UNL     1       4.086  -0.937   1.558  0.00  0.00    +0.000 C 
ATOM      8  O   UNL     1       5.129  -1.564   1.709  0.00  0.00    +0.000 OA
ATOM      9  C   UNL     1       3.149  -1.165   0.380  0.00  0.00    +0.000 C 
ENDROOT
TORSDOF 0
