REMARK  Name = ligand_978112
REMARK  1 active torsions:
REMARK  status: ('A' for Active; 'I' for Inactive)
REMARK    1  A    between atoms: C_4  and  C_5
REMARK                            x       y       z     vdW  Elec       q    Type
REMARK                         _______ _______ _______ _____ _____    ______ ____
ROOT
ATOM      1  C   UNL     1       1.164  -0.020  -0.030  0.00  0.00    +0.000 C 
ATOM      2  C   UNL     1       2.503  -0.005  -0.024  0.00  0.00    +0.000 C 
ATOM      3  C   UNL     1       3.359  -1.235  -0.158  0.00  0.00    +0.000 C 
ATOM      4  C   UNL     1       4.678  -0.751  -0.753  0.00  0.00    +0.000 C 
ATOM      5  C   UNL     1       4.505   0.743  -0.833  0.00  0.00    +0.000 C 
ATOM      6  O   UNL     1       5.284   1.478  -1.432  0.00  0.00    +0.000 OA
ATOM      7  C   UNL     1       3.331   1.243  -0.039  0.00  0.00    +0.000 C 
ENDROOT
BRANCH   4   8
ATOM      8  C   UNL     1       5.006  -1.379  -2.078  0.00  0.00    +0.000 C 
ATOM      9  O   UNL     1       4.694  -2.528  -2.379  0.00  0.00    +0.000 OA
ENDBRANCH   4   8
TORSDOF 1
