REMARK  Name = ligand_978432
REMARK  3 active torsions:
REMARK  status: ('A' for Active; 'I' for Inactive)
REMARK    1  A    between atoms: C_1  and  C_2
REMARK    2  A    between atoms: C_6  and  C_7
REMARK    3  A    between atoms: C_6  and  C_8
REMARK                            x       y       z     vdW  Elec       q    Type
REMARK                         _______ _______ _______ _____ _____    ______ ____
ROOT
ATOM      1  C   UNL     1       0.941  -0.139   0.061  0.00  0.00    +0.000 C 
ATOM      2  C   UNL     1       2.458  -0.075  -0.041  0.00  0.00    +0.000 C 
ATOM      3  C   UNL     1       3.078  -1.261  -0.697  0.00  0.00    +0.000 C 
ATOM      4  C   UNL     1       4.054  -0.835  -1.488  0.00  0.00    +0.000 C 
ATOM      5  O   UNL     1       4.229   0.533  -1.559  0.00  0.00    +0.000 OA
ATOM      6  C   UNL     1       3.045   1.090  -0.904  0.00  0.00    +0.000 C 
ATOM      7  C   UNL     1       3.530   2.222   0.013  0.00  0.00    +0.000 C 
ENDROOT
BRANCH   6   8
ATOM      8  C   UNL     1       2.144   1.572  -2.037  0.00  0.00    +0.000 C 
ATOM      9  C   UNL     1       1.689   2.814  -2.262  0.00  0.00    +0.000 C 
ENDBRANCH   6   8
TORSDOF 1
