REMARK  Name = ligand_979011
REMARK  3 active torsions:
REMARK  status: ('A' for Active; 'I' for Inactive)
REMARK    1  A    between atoms: C_1  and  C_2
REMARK    2  A    between atoms: C_6  and  C_7
REMARK    3  A    between atoms: C_8  and  C_9
REMARK                            x       y       z     vdW  Elec       q    Type
REMARK                         _______ _______ _______ _____ _____    ______ ____
ROOT
ATOM      1  C   UNL     1       1.087   0.018  -0.068  0.00  0.00    +0.000 C 
ATOM      2  C   UNL     1       2.573  -0.061  -0.068  0.00  0.00    +0.000 C 
ATOM      3  C   UNL     1       3.290  -1.192  -0.066  0.00  0.00    +0.000 C 
ATOM      4  C   UNL     1       4.695  -0.768  -0.060  0.00  0.00    +0.000 C 
ATOM      5  O   UNL     1       5.650  -1.517  -0.057  0.00  0.00    +0.000 OA
ATOM      6  C   UNL     1       4.735   0.707  -0.059  0.00  0.00    +0.000 C 
ATOM      7  C   UNL     1       5.988   1.490  -0.052  0.00  0.00    +0.000 C 
ATOM      8  C   UNL     1       3.450   1.094  -0.066  0.00  0.00    +0.000 C 
ATOM      9  C   UNL     1       2.951   2.499  -0.071  0.00  0.00    +0.000 C 
ENDROOT
TORSDOF 0
