REMARK  Name = ligand_979049
REMARK  1 active torsions:
REMARK  status: ('A' for Active; 'I' for Inactive)
REMARK    1  A    between atoms: C_1  and  C_2
REMARK                            x       y       z     vdW  Elec       q    Type
REMARK                         _______ _______ _______ _____ _____    ______ ____
ROOT
ATOM      1  C   UNL     1       1.038   0.107   0.077  0.00  0.00    +0.000 C 
ATOM      2  C   UNL     1       2.565   0.060  -0.049  0.00  0.00    +0.000 C 
ATOM      3  C   UNL     1       3.073   1.106  -1.045  0.00  0.00    +0.000 C 
ATOM      4  C   UNL     1       2.755   0.691  -2.466  0.00  0.00    +0.000 C 
ATOM      5  O   UNL     1       2.260   1.479  -3.273  0.00  0.00    +0.000 OA
ATOM      6  C   UNL     1       3.189  -0.699  -2.879  0.00  0.00    +0.000 C 
ATOM      7  C   UNL     1       2.695  -1.731  -1.874  0.00  0.00    +0.000 C 
ATOM      8  C   UNL     1       3.050  -1.318  -0.465  0.00  0.00    +0.000 C 
ATOM      9  C   UNL     1       3.788  -2.096   0.342  0.00  0.00    +0.000 C 
ENDROOT
TORSDOF 0
