REMARK  Name = ligand_979062
REMARK  2 active torsions:
REMARK  status: ('A' for Active; 'I' for Inactive)
REMARK    1  A    between atoms: C_1  and  C_2
REMARK    2  A    between atoms: C_8  and  C_9
REMARK                            x       y       z     vdW  Elec       q    Type
REMARK                         _______ _______ _______ _____ _____    ______ ____
ROOT
ATOM      1  C   UNL     1       0.328  -0.424  -0.098  0.00  0.00    +0.000 C 
ATOM      2  C   UNL     1       1.838  -0.385  -0.017  0.00  0.00    +0.000 C 
ATOM      3  C   UNL     1       2.657  -1.534  -0.670  0.00  0.00    +0.000 C 
ATOM      4  C   UNL     1       3.784  -0.469  -0.881  0.00  0.00    +0.000 C 
ATOM      5  O   UNL     1       4.655  -0.353   0.269  0.00  0.00    +0.000 OA
ATOM      6  C   UNL     1       5.800   0.352   0.057  0.00  0.00    +0.000 C 
ATOM      7  C   UNL     1       6.717   0.460   1.023  0.00  0.00    +0.000 C 
ATOM      8  C   UNL     1       2.596   0.553  -1.010  0.00  0.00    +0.000 C 
ATOM      9  C   UNL     1       2.727   2.001  -0.591  0.00  0.00    +0.000 C 
ENDROOT
TORSDOF 0
