REMARK  Name = ligand_979389
REMARK  1 active torsions:
REMARK  status: ('A' for Active; 'I' for Inactive)
REMARK    1  A    between atoms: C_1  and  C_2
REMARK                            x       y       z     vdW  Elec       q    Type
REMARK                         _______ _______ _______ _____ _____    ______ ____
ROOT
ATOM      1  C   UNL     1       1.293  -0.088   0.064  0.00  0.00    +0.000 C 
ATOM      2  C   UNL     1       2.806   0.002   0.061  0.00  0.00    +0.000 C 
ATOM      3  C   UNL     1       3.358   1.223   0.070  0.00  0.00    +0.000 C 
ATOM      4  C   UNL     1       4.766   1.642   0.051  0.00  0.00    +0.000 C 
ATOM      5  O   UNL     1       5.032   2.844   0.048  0.00  0.00    +0.000 OA
ATOM      6  C   UNL     1       5.861   0.675   0.034  0.00  0.00    +0.000 C 
ATOM      7  C   UNL     1       5.840  -0.656   0.059  0.00  0.00    +0.000 C 
ATOM      8  O   UNL     1       4.851  -1.558   0.103  0.00  0.00    +0.000 OA
ATOM      9  C   UNL     1       3.452  -1.356   0.036  0.00  0.00    +0.000 C 
ENDROOT
TORSDOF 0
