REMARK  Name = ligand_979406
REMARK  3 active torsions:
REMARK  status: ('A' for Active; 'I' for Inactive)
REMARK    1  A    between atoms: C_1  and  C_2
REMARK    2  A    between atoms: C_6  and  C_7
REMARK    3  A    between atoms: C_7  and  O_8
REMARK                            x       y       z     vdW  Elec       q    Type
REMARK                         _______ _______ _______ _____ _____    ______ ____
ROOT
ATOM      1  C   UNL     1       0.879   0.088   0.055  0.00  0.00    +0.000 C 
ATOM      2  C   UNL     1       2.381   0.106   0.037  0.00  0.00    +0.000 C 
ATOM      3  C   UNL     1       3.095   1.226   0.052  0.00  0.00    +0.000 C 
ATOM      4  C   UNL     1       4.584   1.283   0.010  0.00  0.00    +0.000 C 
ATOM      5  O   UNL     1       5.275   0.050  -0.100  0.00  0.00    +0.000 OA
ATOM      6  C   UNL     1       4.599  -1.197   0.065  0.00  0.00    +0.000 C 
ATOM      7  C   UNL     1       3.063  -1.222  -0.008  0.00  0.00    +0.000 C 
ENDROOT
BRANCH   6   8
ATOM      8  C   UNL     1       5.106  -1.911   1.335  0.00  0.00    +0.000 C 
BRANCH   8   9
ATOM      9  O   UNL     1       4.865  -1.164   2.524  0.00  0.00    +0.000 OA
ATOM     10  H   UNL     1       4.966  -0.225   2.291  0.00  0.00    +0.000 HD
ENDBRANCH   8   9
ENDBRANCH   6   8
TORSDOF 2
