REMARK  Name = ligand_979731
REMARK  4 active torsions:
REMARK  status: ('A' for Active; 'I' for Inactive)
REMARK    1  A    between atoms: C_1  and  C_2
REMARK    2  A    between atoms: C_2  and  C_3
REMARK    3  A    between atoms: C_3  and  C_4
REMARK    4  A    between atoms: C_7  and  C_8
REMARK                            x       y       z     vdW  Elec       q    Type
REMARK                         _______ _______ _______ _____ _____    ______ ____
ROOT
ATOM      1  C   UNL     1       0.772   0.056  -0.219  0.00  0.00    +0.000 C 
ATOM      2  C   UNL     1       2.236  -0.113   0.066  0.00  0.00    +0.000 C 
ATOM      3  O   UNL     1       3.080   0.595  -0.859  0.00  0.00    +0.000 OA
ATOM      4  C   UNL     1       3.129  -0.842  -0.925  0.00  0.00    +0.000 C 
ENDROOT
BRANCH   4   5
ATOM      5  C   UNL     1       2.595  -1.410  -2.177  0.00  0.00    +0.000 C 
ATOM      6  O   UNL     1       2.609  -2.617  -2.379  0.00  0.00    +0.000 OA
ENDBRANCH   4   5
BRANCH   2   7
ATOM      7  C   UNL     1       2.685   0.042   1.495  0.00  0.00    +0.000 C 
BRANCH   7   8
ATOM      8  C   UNL     1       2.068  -0.943   2.455  0.00  0.00    +0.000 C 
ATOM      9  O   UNL     1       1.327  -1.865   2.132  0.00  0.00    +0.000 OA
ENDBRANCH   7   8
ENDBRANCH   2   7
TORSDOF 3
