REMARK  Name = ligand_979851
REMARK  5 active torsions:
REMARK  status: ('A' for Active; 'I' for Inactive)
REMARK    1  A    between atoms: C_1  and  C_2
REMARK    2  A    between atoms: C_2  and  C_5
REMARK    3  A    between atoms: C_5  and  O_6
REMARK    4  A    between atoms: C_5  and  C_7
REMARK    5  A    between atoms: C_7  and  C_8
REMARK                            x       y       z     vdW  Elec       q    Type
REMARK                         _______ _______ _______ _____ _____    ______ ____
ROOT
ATOM      1  C   UNL     1       2.529  -0.068   1.654  0.00  0.00    +0.000 C 
ENDROOT
BRANCH   1   3
ATOM      2  C   UNL     1       0.822   0.099  -0.231  0.00  0.00    +0.000 C 
ATOM      3  C   UNL     1       2.271   0.051   0.164  0.00  0.00    +0.000 C 
ATOM      4  C   UNL     1       3.296   0.572  -0.823  0.00  0.00    +0.000 C 
ATOM      5  O   UNL     1       3.061  -0.834  -0.649  0.00  0.00    +0.000 OA
ENDBRANCH   1   3
BRANCH   1   6
ATOM      6  O   UNL     1       1.913  -1.281   2.106  0.00  0.00    +0.000 OA
ATOM      7  H   UNL     1       2.363  -2.005   1.633  0.00  0.00    +0.000 HD
ENDBRANCH   1   6
BRANCH   1   8
ATOM      8  C   UNL     1       3.999  -0.065   2.106  0.00  0.00    +0.000 C 
BRANCH   8   9
ATOM      9  C   UNL     1       4.112  -0.189   3.608  0.00  0.00    +0.000 C 
ATOM     10  C   UNL     1       4.676   0.722   4.404  0.00  0.00    +0.000 C 
ENDBRANCH   8   9
ENDBRANCH   1   8
TORSDOF 4
