REMARK  Name = ligand_980155
REMARK  2 active torsions:
REMARK  status: ('A' for Active; 'I' for Inactive)
REMARK    1  A    between atoms: C_1  and  C_2
REMARK    2  A    between atoms: C_6  and  C_7
REMARK                            x       y       z     vdW  Elec       q    Type
REMARK                         _______ _______ _______ _____ _____    ______ ____
ROOT
ATOM      1  C   UNL     1       0.867  -0.090   0.101  0.00  0.00    +0.000 C 
ATOM      2  C   UNL     1       2.390  -0.077   0.104  0.00  0.00    +0.000 C 
ATOM      3  C   UNL     1       3.121   1.067   0.896  0.00  0.00    +0.000 C 
ATOM      4  C   UNL     1       2.974   0.145   2.139  0.00  0.00    +0.000 C 
ATOM      5  C   UNL     1       3.171  -1.008   1.104  0.00  0.00    +0.000 C 
ATOM      6  C   UNL     1       4.644  -1.196   0.675  0.00  0.00    +0.000 C 
ATOM      7  C   UNL     1       5.506  -1.620   1.864  0.00  0.00    +0.000 C 
ATOM      8  C   UNL     1       5.177   0.102   0.026  0.00  0.00    +0.000 C 
ATOM      9  O   UNL     1       4.510   1.273   0.520  0.00  0.00    +0.000 OA
ENDROOT
TORSDOF 0
