REMARK  Name = ligand_980379
REMARK  3 active torsions:
REMARK  status: ('A' for Active; 'I' for Inactive)
REMARK    1  A    between atoms: C_1  and  C_2
REMARK    2  A    between atoms: C_2  and  C_3
REMARK    3  A    between atoms: C_3  and  O_4
REMARK                            x       y       z     vdW  Elec       q    Type
REMARK                         _______ _______ _______ _____ _____    ______ ____
ROOT
ATOM      1  C   UNL     1       0.975  -0.050  -0.051  0.00  0.00    +0.000 C 
ATOM      2  C   UNL     1       2.518  -0.029   0.029  0.00  0.00    +0.000 C 
ATOM      3  C   UNL     1       3.297   0.991  -0.942  0.00  0.00    +0.000 C 
ATOM      4  C   UNL     1       2.912  -0.026  -2.080  0.00  0.00    +0.000 C 
ATOM      5  C   UNL     1       3.341  -1.009  -0.932  0.00  0.00    +0.000 C 
ATOM      6  O   UNL     1       4.760  -0.751  -0.726  0.00  0.00    +0.000 OA
ATOM      7  C   UNL     1       4.804   0.692  -0.823  0.00  0.00    +0.000 C 
ENDROOT
BRANCH   2   8
ATOM      8  C   UNL     1       2.857  -0.099   1.534  0.00  0.00    +0.000 C 
BRANCH   8   9
ATOM      9  O   UNL     1       4.244  -0.093   1.834  0.00  0.00    +0.000 OA
ATOM     10  H   UNL     1       4.670  -0.769   1.270  0.00  0.00    +0.000 HD
ENDBRANCH   8   9
ENDBRANCH   2   8
TORSDOF 2
