REMARK  Name = ligand_980305
REMARK  1 active torsions:
REMARK  status: ('A' for Active; 'I' for Inactive)
REMARK    1  A    between atoms: C_1  and  C_2
REMARK                            x       y       z     vdW  Elec       q    Type
REMARK                         _______ _______ _______ _____ _____    ______ ____
ROOT
ATOM      1  C   UNL     1       1.129   0.557   0.005  0.00  0.00    +0.000 C 
ATOM      2  C   UNL     1       2.013   0.796  -1.155  0.00  0.00    +0.000 C 
ATOM      3  C   UNL     1       1.930   1.766  -2.085  0.00  0.00    +0.000 C 
ATOM      4  O   UNL     1       2.792   1.593  -3.167  0.00  0.00    +0.000 OA
ATOM      5  C   UNL     1       3.361   0.351  -2.958  0.00  0.00    +0.000 C 
ATOM      6  C   UNL     1       3.288  -0.684  -3.814  0.00  0.00    +0.000 C 
ATOM      7  C   UNL     1       3.044  -1.882  -3.026  0.00  0.00    +0.000 C 
ATOM      8  C   UNL     1       2.899  -1.561  -1.729  0.00  0.00    +0.000 C 
ATOM      9  C   UNL     1       3.155  -0.097  -1.535  0.00  0.00    +0.000 C 
ENDROOT
TORSDOF 0
