REMARK  Name = ligand_980579
REMARK  6 active torsions:
REMARK  status: ('A' for Active; 'I' for Inactive)
REMARK    1  A    between atoms: C_1  and  C_2
REMARK    2  A    between atoms: C_2  and  C_3
REMARK    3  A    between atoms: C_3  and  O_4
REMARK    4  A    between atoms: C_6  and  C_7
REMARK    5  A    between atoms: C_6  and  C_8
REMARK    6  A    between atoms: C_8  and  O_9
REMARK                            x       y       z     vdW  Elec       q    Type
REMARK                         _______ _______ _______ _____ _____    ______ ____
ROOT
ATOM      1  C   UNL     1       1.248  -0.264  -0.237  0.00  0.00    +0.000 C 
ATOM      2  C   UNL     1       2.663  -0.001   0.214  0.00  0.00    +0.000 C 
ATOM      3  C   UNL     1       3.526   0.790  -0.752  0.00  0.00    +0.000 C 
ATOM      4  C   UNL     1       3.863  -0.652  -0.474  0.00  0.00    +0.000 C 
ATOM      5  C   UNL     1       3.718  -1.714  -1.528  0.00  0.00    +0.000 C 
ENDROOT
BRANCH   2   6
ATOM      6  C   UNL     1       2.809   0.224   1.698  0.00  0.00    +0.000 C 
BRANCH   6   7
ATOM      7  O   UNL     1       2.382  -0.946   2.389  0.00  0.00    +0.000 OA
ATOM      8  H   UNL     1       1.411  -0.965   2.337  0.00  0.00    +0.000 HD
ENDBRANCH   6   7
ENDBRANCH   2   6
BRANCH   4   9
ATOM      9  C   UNL     1       4.158  -3.082  -1.001  0.00  0.00    +0.000 C 
BRANCH   9  10
ATOM     10  O   UNL     1       3.272  -3.545   0.011  0.00  0.00    +0.000 OA
ATOM     11  H   UNL     1       3.257  -2.873   0.719  0.00  0.00    +0.000 HD
ENDBRANCH   9  10
ENDBRANCH   4   9
TORSDOF 4
