REMARK  Name = ligand_980617
REMARK  3 active torsions:
REMARK  status: ('A' for Active; 'I' for Inactive)
REMARK    1  A    between atoms: C_1  and  C_2
REMARK    2  A    between atoms: C_5  and  C_7
REMARK    3  A    between atoms: C_7  and  O_8
REMARK                            x       y       z     vdW  Elec       q    Type
REMARK                         _______ _______ _______ _____ _____    ______ ____
ROOT
ATOM      1  C   UNL     1       1.030   0.010   0.071  0.00  0.00    +0.000 C 
ATOM      2  C   UNL     1       2.547   0.019   0.084  0.00  0.00    +0.000 C 
ATOM      3  C   UNL     1       3.151  -1.215   0.730  0.00  0.00    +0.000 C 
ATOM      4  O   UNL     1       4.446  -0.834   1.231  0.00  0.00    +0.000 OA
ATOM      5  C   UNL     1       4.545   0.611   1.194  0.00  0.00    +0.000 C 
ATOM      6  C   UNL     1       3.153   1.138   0.907  0.00  0.00    +0.000 C 
ENDROOT
BRANCH   5   7
ATOM      7  C   UNL     1       5.551   0.985   0.102  0.00  0.00    +0.000 C 
ATOM      8  O   UNL     1       5.765   2.116  -0.303  0.00  0.00    +0.000 OA
BRANCH   7   9
ATOM      9  O   UNL     1       6.194  -0.111  -0.382  0.00  0.00    +0.000 OA
ATOM     10  H   UNL     1       5.850  -0.899   0.100  0.00  0.00    +0.000 HD
ENDBRANCH   7   9
ENDBRANCH   5   7
TORSDOF 2
