REMARK  Name = ligand_981001
REMARK  2 active torsions:
REMARK  status: ('A' for Active; 'I' for Inactive)
REMARK    1  A    between atoms: C_1  and  C_2
REMARK    2  A    between atoms: C_6  and  C_7
REMARK                            x       y       z     vdW  Elec       q    Type
REMARK                         _______ _______ _______ _____ _____    ______ ____
ROOT
ATOM      1  C   UNL     1       0.891  -0.022   0.073  0.00  0.00    +0.000 C 
ATOM      2  C   UNL     1       2.390  -0.015   0.022  0.00  0.00    +0.000 C 
ATOM      3  C   UNL     1       3.079   1.137  -0.084  0.00  0.00    +0.000 C 
ATOM      4  O   UNL     1       4.451   1.221  -0.201  0.00  0.00    +0.000 OA
ATOM      5  C   UNL     1       5.148   0.042  -0.370  0.00  0.00    +0.000 C 
ATOM      6  C   UNL     1       4.608  -1.186  -0.284  0.00  0.00    +0.000 C 
ATOM      7  C   UNL     1       5.423  -2.415  -0.551  0.00  0.00    +0.000 C 
ATOM      8  C   UNL     1       3.173  -1.267   0.052  0.00  0.00    +0.000 C 
ATOM      9  C   UNL     1       2.598  -2.440   0.376  0.00  0.00    +0.000 C 
ENDROOT
TORSDOF 0
