REMARK  Name = ligand_981130
REMARK  3 active torsions:
REMARK  status: ('A' for Active; 'I' for Inactive)
REMARK    1  A    between atoms: C_1  and  C_2
REMARK    2  A    between atoms: C_3  and  O_4
REMARK    3  A    between atoms: C_5  and  C_6
REMARK                            x       y       z     vdW  Elec       q    Type
REMARK                         _______ _______ _______ _____ _____    ______ ____
ROOT
ATOM      1  C   UNL     1       1.072  -0.000   0.087  0.00  0.00    +0.000 C 
ATOM      2  C   UNL     1       2.583  -0.005   0.001  0.00  0.00    +0.000 C 
ATOM      3  C   UNL     1       3.327  -1.086   0.854  0.00  0.00    +0.000 C 
ATOM      4  C   UNL     1       4.418  -0.031   1.254  0.00  0.00    +0.000 C 
ATOM      5  C   UNL     1       3.336   1.031   0.876  0.00  0.00    +0.000 C 
ATOM      6  O   UNL     1       3.134   2.190   1.169  0.00  0.00    +0.000 OA
ENDROOT
BRANCH   3   7
ATOM      7  O   UNL     1       3.746  -2.279   0.155  0.00  0.00    +0.000 OA
ATOM      8  H   UNL     1       4.336  -1.985  -0.560  0.00  0.00    +0.000 HD
ENDBRANCH   3   7
BRANCH   4   9
ATOM      9  C   UNL     1       5.599   0.036   0.408  0.00  0.00    +0.000 C 
ATOM     10  C   UNL     1       6.563   0.067  -0.305  0.00  0.00    +0.000 C 
ENDBRANCH   4   9
TORSDOF 2
