REMARK  Name = ligand_981647
REMARK  1 active torsions:
REMARK  status: ('A' for Active; 'I' for Inactive)
REMARK    1  A    between atoms: C_1  and  C_2
REMARK                            x       y       z     vdW  Elec       q    Type
REMARK                         _______ _______ _______ _____ _____    ______ ____
ROOT
ATOM      1  C   UNL     1       0.980  -0.069  -0.015  0.00  0.00    +0.000 C 
ATOM      2  C   UNL     1       2.493   0.103   0.084  0.00  0.00    +0.000 C 
ATOM      3  C   UNL     1       3.078  -0.962   1.021  0.00  0.00    +0.000 C 
ATOM      4  O   UNL     1       4.500  -0.843   1.085  0.00  0.00    +0.000 OA
ATOM      5  C   UNL     1       4.870   0.438   1.589  0.00  0.00    +0.000 C 
ATOM      6  O   UNL     1       4.400   1.506   0.771  0.00  0.00    +0.000 OA
ATOM      7  C   UNL     1       2.971   1.459   0.560  0.00  0.00    +0.000 C 
ATOM      8  C   UNL     1       2.397   2.735  -0.006  0.00  0.00    +0.000 C 
ATOM      9  C   UNL     1       2.155   2.378   1.435  0.00  0.00    +0.000 C 
ENDROOT
TORSDOF 0
