REMARK  Name = ligand_981677
REMARK  4 active torsions:
REMARK  status: ('A' for Active; 'I' for Inactive)
REMARK    1  A    between atoms: C_1  and  C_2
REMARK    2  A    between atoms: C_2  and  C_3
REMARK    3  A    between atoms: C_5  and  O_6
REMARK    4  A    between atoms: C_7  and  C_8
REMARK                            x       y       z     vdW  Elec       q    Type
REMARK                         _______ _______ _______ _____ _____    ______ ____
ROOT
ATOM      1  C   UNL     1       0.858   0.139  -0.261  0.00  0.00    +0.000 C 
ATOM      2  C   UNL     1       2.362   0.059  -0.096  0.00  0.00    +0.000 C 
ATOM      3  C   UNL     1       3.205   0.793  -1.127  0.00  0.00    +0.000 C 
ATOM      4  C   UNL     1       3.169  -0.714  -1.140  0.00  0.00    +0.000 C 
ENDROOT
BRANCH   2   5
ATOM      5  C   UNL     1       2.854  -0.021   1.319  0.00  0.00    +0.000 C 
ATOM      6  O   UNL     1       4.052  -0.064   1.582  0.00  0.00    +0.000 OA
ENDBRANCH   2   5
BRANCH   3   7
ATOM      7  O   UNL     1       4.440   1.393  -0.685  0.00  0.00    +0.000 OA
ATOM      8  H   UNL     1       4.797   0.953   0.116  0.00  0.00    +0.000 HD
ENDBRANCH   3   7
BRANCH   4   9
ATOM      9  C   UNL     1       2.497  -1.387  -2.215  0.00  0.00    +0.000 C 
ATOM     10  C   UNL     1       1.926  -1.958  -3.104  0.00  0.00    +0.000 C 
ENDBRANCH   4   9
TORSDOF 3
