REMARK  Name = ligand_981817
REMARK  3 active torsions:
REMARK  status: ('A' for Active; 'I' for Inactive)
REMARK    1  A    between atoms: C_1  and  C_2
REMARK    2  A    between atoms: C_2  and  C_3
REMARK    3  A    between atoms: C_3  and  O_4
REMARK                            x       y       z     vdW  Elec       q    Type
REMARK                         _______ _______ _______ _____ _____    ______ ____
ROOT
ATOM      1  C   UNL     1       1.063  -0.068   0.053  0.00  0.00    +0.000 C 
ATOM      2  C   UNL     1       2.585  -0.066  -0.046  0.00  0.00    +0.000 C 
ATOM      3  C   UNL     1       3.208  -1.270   0.655  0.00  0.00    +0.000 C 
ATOM      4  O   UNL     1       4.416  -0.878   1.324  0.00  0.00    +0.000 OA
ATOM      5  C   UNL     1       4.480   0.549   1.409  0.00  0.00    +0.000 C 
ATOM      6  C   UNL     1       3.206   1.021   0.761  0.00  0.00    +0.000 C 
ATOM      7  O   UNL     1       2.799   2.175   0.812  0.00  0.00    +0.000 OA
ENDROOT
BRANCH   2   8
ATOM      8  C   UNL     1       3.021   0.091  -1.507  0.00  0.00    +0.000 C 
BRANCH   8   9
ATOM      9  O   UNL     1       4.435   0.097  -1.664  0.00  0.00    +0.000 OA
ATOM     10  H   UNL     1       4.733   1.025  -1.661  0.00  0.00    +0.000 HD
ENDBRANCH   8   9
ENDBRANCH   2   8
TORSDOF 2
