REMARK  Name = ligand_982156
REMARK  4 active torsions:
REMARK  status: ('A' for Active; 'I' for Inactive)
REMARK    1  A    between atoms: C_1  and  C_2
REMARK    2  A    between atoms: C_4  and  C_5
REMARK    3  A    between atoms: C_5  and  C_6
REMARK    4  A    between atoms: C_7  and  C_8
REMARK                            x       y       z     vdW  Elec       q    Type
REMARK                         _______ _______ _______ _____ _____    ______ ____
ROOT
ATOM      1  C   UNL     1       2.464  -1.401  -2.332  0.00  0.00    +0.000 C 
ENDROOT
BRANCH   1   5
ATOM      2  C   UNL     1       0.841   0.029   0.044  0.00  0.00    +0.000 C 
ATOM      3  C   UNL     1       2.291  -0.294   0.101  0.00  0.00    +0.000 C 
ATOM      4  O   UNL     1       3.102   0.414  -0.836  0.00  0.00    +0.000 OA
ATOM      5  C   UNL     1       3.039  -1.021  -1.005  0.00  0.00    +0.000 C 
ENDBRANCH   1   5
BRANCH   1   6
ATOM      6  C   UNL     1       2.356  -2.867  -2.349  0.00  0.00    +0.000 C 
ATOM      7  C   UNL     1       2.221  -4.050  -2.508  0.00  0.00    +0.000 C 
BRANCH   7   8
ATOM      8  C   UNL     1       2.025  -5.451  -2.800  0.00  0.00    +0.000 C 
ATOM      9  O   UNL     1       0.952  -5.851  -3.228  0.00  0.00    +0.000 OA
ENDBRANCH   7   8
ENDBRANCH   1   6
TORSDOF 3
