REMARK  Name = ligand_983001
REMARK  0 active torsions:
REMARK  status: ('A' for Active; 'I' for Inactive)
REMARK                            x       y       z     vdW  Elec       q    Type
REMARK                         _______ _______ _______ _____ _____    ______ ____
ROOT
ATOM      1  C   UNL     1       1.234   0.008  -0.009  0.00  0.00    +0.000 C 
ATOM      2  C   UNL     1       2.565   0.028  -0.128  0.00  0.00    +0.000 C 
ATOM      3  O   UNL     1       3.265  -1.165  -0.275  0.00  0.00    +0.000 OA
ATOM      4  C   UNL     1       4.495  -0.823  -0.941  0.00  0.00    +0.000 C 
ATOM      5  C   UNL     1       4.702   0.649  -0.731  0.00  0.00    +0.000 C 
ATOM      6  C   UNL     1       6.035   1.175  -0.257  0.00  0.00    +0.000 C 
ATOM      7  C   UNL     1       5.584   1.435  -1.668  0.00  0.00    +0.000 C 
ATOM      8  C   UNL     1       3.436   1.181  -0.229  0.00  0.00    +0.000 C 
ATOM      9  C   UNL     1       3.121   2.439   0.118  0.00  0.00    +0.000 C 
ENDROOT
TORSDOF 0
