REMARK  Name = ligand_983099
REMARK  0 active torsions:
REMARK  status: ('A' for Active; 'I' for Inactive)
REMARK                            x       y       z     vdW  Elec       q    Type
REMARK                         _______ _______ _______ _____ _____    ______ ____
ROOT
ATOM      1  C   UNL     1       1.033  -0.074  -0.161  0.00  0.00    +0.000 C 
ATOM      2  C   UNL     1       2.338   0.116   0.051  0.00  0.00    +0.000 C 
ATOM      3  O   UNL     1       3.281  -0.913  -0.085  0.00  0.00    +0.000 OA
ATOM      4  C   UNL     1       4.536  -0.327   0.043  0.00  0.00    +0.000 C 
ATOM      5  C   UNL     1       4.463   0.966   0.345  0.00  0.00    +0.000 C 
ATOM      6  C   UNL     1       5.325   2.133   0.111  0.00  0.00    +0.000 C 
ATOM      7  C   UNL     1       4.249   3.187  -0.183  0.00  0.00    +0.000 C 
ATOM      8  O   UNL     1       2.988   2.497  -0.388  0.00  0.00    +0.000 OA
ATOM      9  C   UNL     1       3.045   1.371   0.485  0.00  0.00    +0.000 C 
ENDROOT
TORSDOF 0
