REMARK  Name = ligand_983203
REMARK  2 active torsions:
REMARK  status: ('A' for Active; 'I' for Inactive)
REMARK    1  A    between atoms: C_1  and  C_2
REMARK    2  A    between atoms: C_8  and  O_9
REMARK                            x       y       z     vdW  Elec       q    Type
REMARK                         _______ _______ _______ _____ _____    ______ ____
ROOT
ATOM      1  C   UNL     1       1.152   0.209   0.134  0.00  0.00    +0.000 C 
ATOM      2  C   UNL     1       2.653   0.239   0.372  0.00  0.00    +0.000 C 
ATOM      3  O   UNL     1       3.100   1.582   0.115  0.00  0.00    +0.000 OA
ATOM      4  C   UNL     1       4.436   1.483  -0.376  0.00  0.00    +0.000 C 
ATOM      5  C   UNL     1       4.474   0.215  -1.201  0.00  0.00    +0.000 C 
ATOM      6  O   UNL     1       5.572  -0.655  -0.829  0.00  0.00    +0.000 OA
ATOM      7  C   UNL     1       4.689  -1.412   0.035  0.00  0.00    +0.000 C 
ATOM      8  C   UNL     1       3.442  -0.705  -0.548  0.00  0.00    +0.000 C 
ENDROOT
BRANCH   8   9
ATOM      9  O   UNL     1       2.613  -1.507  -1.428  0.00  0.00    +0.000 OA
ATOM     10  H   UNL     1       2.257  -2.219  -0.872  0.00  0.00    +0.000 HD
ENDBRANCH   8   9
TORSDOF 1
