REMARK  Name = ligand_983339
REMARK  3 active torsions:
REMARK  status: ('A' for Active; 'I' for Inactive)
REMARK    1  A    between atoms: C_1  and  C_2
REMARK    2  A    between atoms: C_3  and  C_4
REMARK    3  A    between atoms: C_5  and  O_6
REMARK                            x       y       z     vdW  Elec       q    Type
REMARK                         _______ _______ _______ _____ _____    ______ ____
ROOT
ATOM      1  C   UNL     1       2.186   0.065   0.003  0.00  0.00    +0.000 C 
ATOM      2  C   UNL     1       0.723  -0.152   0.004  0.00  0.00    +0.000 A 
ATOM      3  C   UNL     1      -0.120  -1.252   0.001  0.00  0.00    +0.000 A 
ATOM      4  C   UNL     1      -1.442  -0.729   0.005  0.00  0.00    +0.000 A 
ATOM      5  C   UNL     1      -1.320   0.639   0.006  0.00  0.00    +0.000 A 
ATOM      6  O   UNL     1      -0.015   0.997   0.008  0.00  0.00    +0.000 OA
ENDROOT
BRANCH   3   7
ATOM      7  C   UNL     1       0.272  -2.627  -0.005  0.00  0.00    +0.000 C 
ATOM      8  C   UNL     1      -0.579  -3.664  -0.009  0.00  0.00    +0.000 C 
BRANCH   8   9
ATOM      9  O   UNL     1      -0.221  -4.985  -0.015  0.00  0.00    +0.000 OA
ATOM     10  H   UNL     1       0.749  -5.054  -0.015  0.00  0.00    +0.000 HD
ENDBRANCH   8   9
ENDBRANCH   3   7
TORSDOF 2
