REMARK  Name = ligand_983467
REMARK  2 active torsions:
REMARK  status: ('A' for Active; 'I' for Inactive)
REMARK    1  A    between atoms: C_1  and  C_2
REMARK    2  A    between atoms: C_2  and  O_3
REMARK                            x       y       z     vdW  Elec       q    Type
REMARK                         _______ _______ _______ _____ _____    ______ ____
ROOT
ATOM      1  C   UNL     1       0.897  -0.004  -0.127  0.00  0.00    +0.000 C 
ATOM      2  C   UNL     1       2.412  -0.110   0.036  0.00  0.00    +0.000 C 
ATOM      3  C   UNL     1       2.873  -1.565   0.248  0.00  0.00    +0.000 C 
ATOM      4  C   UNL     1       2.863  -1.945   1.735  0.00  0.00    +0.000 C 
ATOM      5  C   UNL     1       3.306  -0.739   2.570  0.00  0.00    +0.000 C 
ATOM      6  C   UNL     1       2.276   0.408   2.611  0.00  0.00    +0.000 C 
ATOM      7  C   UNL     1       2.908   0.733   1.232  0.00  0.00    +0.000 C 
ATOM      8  O   UNL     1       4.173   0.151   1.769  0.00  0.00    +0.000 OA
ENDROOT
BRANCH   2   9
ATOM      9  O   UNL     1       3.002   0.401  -1.164  0.00  0.00    +0.000 OA
ATOM     10  H   UNL     1       2.825  -0.231  -1.880  0.00  0.00    +0.000 HD
ENDBRANCH   2   9
TORSDOF 1
