REMARK  Name = ligand_984152
REMARK  1 active torsions:
REMARK  status: ('A' for Active; 'I' for Inactive)
REMARK    1  A    between atoms: C_1  and  C_2
REMARK                            x       y       z     vdW  Elec       q    Type
REMARK                         _______ _______ _______ _____ _____    ______ ____
ROOT
ATOM      1  C   UNL     1       1.067  -0.043   0.111  0.00  0.00    +0.000 C 
ATOM      2  C   UNL     1       2.590  -0.043  -0.033  0.00  0.00    +0.000 C 
ATOM      3  O   UNL     1       3.033   0.938  -0.977  0.00  0.00    +0.000 OA
ATOM      4  C   UNL     1       2.731   0.593  -2.328  0.00  0.00    +0.000 C 
ATOM      5  C   UNL     1       3.242  -0.777  -2.669  0.00  0.00    +0.000 C 
ATOM      6  C   UNL     1       3.893  -1.077  -3.800  0.00  0.00    +0.000 C 
ATOM      7  O   UNL     1       3.060  -1.777  -1.728  0.00  0.00    +0.000 OA
ATOM      8  C   UNL     1       3.137  -1.400  -0.397  0.00  0.00    +0.000 C 
ATOM      9  C   UNL     1       3.746  -2.226   0.467  0.00  0.00    +0.000 C 
ENDROOT
TORSDOF 0
