REMARK  Name = ligand_984625
REMARK  0 active torsions:
REMARK  status: ('A' for Active; 'I' for Inactive)
REMARK                            x       y       z     vdW  Elec       q    Type
REMARK                         _______ _______ _______ _____ _____    ______ ____
ROOT
ATOM      1  C   UNL     1       1.332   0.103   0.451  0.00  0.00    +0.000 C 
ATOM      2  C   UNL     1       2.444  -0.190  -0.232  0.00  0.00    +0.000 C 
ATOM      3  O   UNL     1       2.840  -1.505  -0.376  0.00  0.00    +0.000 OA
ATOM      4  C   UNL     1       3.742  -1.763  -1.462  0.00  0.00    +0.000 C 
ATOM      5  O   UNL     1       3.498  -0.975  -2.626  0.00  0.00    +0.000 OA
ATOM      6  C   UNL     1       3.612   0.442  -2.362  0.00  0.00    +0.000 C 
ATOM      7  C   UNL     1       2.451   1.353  -2.790  0.00  0.00    +0.000 C 
ATOM      8  O   UNL     1       2.442   1.997  -1.488  0.00  0.00    +0.000 OA
ATOM      9  C   UNL     1       3.207   0.886  -0.937  0.00  0.00    +0.000 C 
ENDROOT
TORSDOF 0
