REMARK  Name = ligand_985079
REMARK  2 active torsions:
REMARK  status: ('A' for Active; 'I' for Inactive)
REMARK    1  A    between atoms: C_1  and  C_2
REMARK    2  A    between atoms: C_2  and  C_3
REMARK                            x       y       z     vdW  Elec       q    Type
REMARK                         _______ _______ _______ _____ _____    ______ ____
ROOT
ATOM      1  C   UNL     1       2.465  -1.586   1.131  0.00  0.00    +0.000 C 
ATOM      2  C   UNL     1       3.434  -2.805   1.491  0.00  0.00    +0.000 C 
ATOM      3  C   UNL     1       2.229  -3.479   0.685  0.00  0.00    +0.000 C 
ATOM      4  C   UNL     1       2.307  -4.758  -0.099  0.00  0.00    +0.000 C 
ATOM      5  O   UNL     1       2.406  -2.285  -0.231  0.00  0.00    +0.000 OA
ATOM      6  C   UNL     1       0.996  -3.203   1.482  0.00  0.00    +0.000 C 
ATOM      7  C   UNL     1       1.163  -1.913   1.804  0.00  0.00    +0.000 C 
ENDROOT
BRANCH   1   9
ATOM      8  C   UNL     1       3.561   0.494   2.050  0.00  0.00    +0.000 C 
ATOM      9  C   UNL     1       2.791  -0.127   0.906  0.00  0.00    +0.000 C 
ENDBRANCH   1   9
TORSDOF 1
