REMARK  Name = ligand_985211
REMARK  2 active torsions:
REMARK  status: ('A' for Active; 'I' for Inactive)
REMARK    1  A    between atoms: C_1  and  C_2
REMARK    2  A    between atoms: C_2  and  C_3
REMARK                            x       y       z     vdW  Elec       q    Type
REMARK                         _______ _______ _______ _____ _____    ______ ____
ROOT
ATOM      1  C   UNL     1       3.009  -0.435  -1.764  0.00  0.00    +0.000 C 
ATOM      2  O   UNL     1       2.203  -1.345  -2.517  0.00  0.00    +0.000 OA
ATOM      3  C   UNL     1       3.576  -1.704  -2.463  0.00  0.00    +0.000 C 
ATOM      4  C   UNL     1       4.541  -0.993  -3.417  0.00  0.00    +0.000 C 
ATOM      5  C   UNL     1       5.352   0.114  -2.617  0.00  0.00    +0.000 C 
ATOM      6  C   UNL     1       3.839   0.608  -2.521  0.00  0.00    +0.000 C 
ATOM      7  O   UNL     1       3.845   0.243  -4.012  0.00  0.00    +0.000 OA
ENDROOT
BRANCH   1   9
ATOM      8  C   UNL     1       1.360   0.189  -0.029  0.00  0.00    +0.000 C 
ATOM      9  C   UNL     1       2.755  -0.352  -0.307  0.00  0.00    +0.000 C 
ENDBRANCH   1   9
TORSDOF 1
