REMARK  Name = ligand_985393
REMARK  1 active torsions:
REMARK  status: ('A' for Active; 'I' for Inactive)
REMARK    1  A    between atoms: C_2  and  C_3
REMARK                            x       y       z     vdW  Elec       q    Type
REMARK                         _______ _______ _______ _____ _____    ______ ____
ROOT
ATOM      1  C   UNL     1       3.825  -0.065  -0.076  0.00  0.00    +0.000 C 
ATOM      2  C   UNL     1       4.420  -1.177  -0.920  0.00  0.00    +0.000 C 
ATOM      3  C   UNL     1       3.935  -0.795  -2.319  0.00  0.00    +0.000 C 
ATOM      4  O   UNL     1       4.024   0.645  -2.323  0.00  0.00    +0.000 OA
ATOM      5  C   UNL     1       4.457   0.977  -0.986  0.00  0.00    +0.000 C 
ATOM      6  O   UNL     1       5.866   0.661  -0.916  0.00  0.00    +0.000 OA
ATOM      7  C   UNL     1       5.895  -0.785  -0.853  0.00  0.00    +0.000 C 
ENDROOT
BRANCH   1   9
ATOM      8  C   UNL     1       1.002  -0.065  -0.076  0.00  0.00    +0.000 C 
ATOM      9  C   UNL     1       2.305  -0.065  -0.076  0.00  0.00    +0.000 C 
ENDBRANCH   1   9
TORSDOF 1
