REMARK  Name = ligand_985812
REMARK  2 active torsions:
REMARK  status: ('A' for Active; 'I' for Inactive)
REMARK    1  A    between atoms: C_1  and  C_2
REMARK    2  A    between atoms: C_2  and  C_3
REMARK                            x       y       z     vdW  Elec       q    Type
REMARK                         _______ _______ _______ _____ _____    ______ ____
ROOT
ATOM      1  C   UNL     1       3.104   0.727  -1.262  0.00  0.00    +0.000 C 
ATOM      2  C   UNL     1       4.638   0.975  -1.182  0.00  0.00    +0.000 C 
ATOM      3  C   UNL     1       4.624   2.501  -1.167  0.00  0.00    +0.000 C 
ATOM      4  O   UNL     1       3.495   2.860  -0.268  0.00  0.00    +0.000 OA
ATOM      5  C   UNL     1       2.648   2.190  -1.289  0.00  0.00    +0.000 C 
ATOM      6  C   UNL     1       3.607   2.949  -2.290  0.00  0.00    +0.000 C 
ATOM      7  O   UNL     1       3.597   3.414  -3.399  0.00  0.00    +0.000 OA
ENDROOT
BRANCH   1   9
ATOM      8  C   UNL     1       1.064  -0.265  -0.133  0.00  0.00    +0.000 C 
ATOM      9  C   UNL     1       2.565  -0.026  -0.047  0.00  0.00    +0.000 C 
ENDBRANCH   1   9
TORSDOF 1
