REMARK  Name = ligand_985808
REMARK  2 active torsions:
REMARK  status: ('A' for Active; 'I' for Inactive)
REMARK    1  A    between atoms: C_1  and  C_2
REMARK    2  A    between atoms: C_8  and  O_9
REMARK                            x       y       z     vdW  Elec       q    Type
REMARK                         _______ _______ _______ _____ _____    ______ ____
ROOT
ATOM      1  C   UNL     1       1.114   0.016   0.071  0.00  0.00    +0.000 C 
ATOM      2  C   UNL     1       2.607   0.030   0.090  0.00  0.00    +0.000 C 
ATOM      3  C   UNL     1       3.376  -0.813   0.783  0.00  0.00    +0.000 C 
ATOM      4  C   UNL     1       4.867  -0.940   0.862  0.00  0.00    +0.000 C 
ATOM      5  C   UNL     1       4.864  -2.085   1.890  0.00  0.00    +0.000 C 
ATOM      6  O   UNL     1       3.839  -3.083   1.388  0.00  0.00    +0.000 OA
ATOM      7  C   UNL     1       2.926  -1.909   1.677  0.00  0.00    +0.000 C 
ATOM      8  C   UNL     1       3.789  -1.784   3.003  0.00  0.00    +0.000 C 
ENDROOT
BRANCH   8   9
ATOM      9  O   UNL     1       3.855  -0.522   3.711  0.00  0.00    +0.000 OA
ATOM     10  H   UNL     1       3.764   0.173   3.038  0.00  0.00    +0.000 HD
ENDBRANCH   8   9
TORSDOF 1
