REMARK  Name = ligand_986107
REMARK  2 active torsions:
REMARK  status: ('A' for Active; 'I' for Inactive)
REMARK    1  A    between atoms: C_1  and  C_2
REMARK    2  A    between atoms: C_7  and  C_8
REMARK                            x       y       z     vdW  Elec       q    Type
REMARK                         _______ _______ _______ _____ _____    ______ ____
ROOT
ATOM      1  C   UNL     1       0.943   0.109   0.203  0.00  0.00    +0.000 C 
ATOM      2  C   UNL     1       2.410  -0.010  -0.045  0.00  0.00    +0.000 C 
ATOM      3  C   UNL     1       3.033  -0.341  -1.184  0.00  0.00    +0.000 C 
ATOM      4  C   UNL     1       4.542  -0.302  -1.328  0.00  0.00    +0.000 C 
ATOM      5  C   UNL     1       4.784  -0.205  -2.835  0.00  0.00    +0.000 C 
ATOM      6  C   UNL     1       3.488  -0.664  -3.410  0.00  0.00    +0.000 C 
ATOM      7  C   UNL     1       2.524  -0.727  -2.483  0.00  0.00    +0.000 C 
ENDROOT
BRANCH   7   8
ATOM      8  C   UNL     1       1.167  -1.210  -2.825  0.00  0.00    +0.000 C 
ATOM      9  O   UNL     1       0.836  -1.544  -3.958  0.00  0.00    +0.000 OA
ENDBRANCH   7   8
TORSDOF 1
