REMARK  Name = ligand_98623
REMARK  0 active torsions:
REMARK  status: ('A' for Active; 'I' for Inactive)
REMARK                            x       y       z     vdW  Elec       q    Type
REMARK                         _______ _______ _______ _____ _____    ______ ____
ROOT
ATOM      1  C   UNL     1      -1.591  -0.325   0.883  0.00  0.00    +0.000 C 
ATOM      2  C   UNL     1      -1.299   0.744  -0.206  0.00  0.00    +0.000 C 
ATOM      3  C   UNL     1      -1.880  -0.331  -1.160  0.00  0.00    +0.000 C 
ATOM      4  N   UNL     1      -1.503  -1.377  -0.168  0.00  0.00    +0.000 NA
ATOM      5  C   UNL     1      -0.120  -1.861  -0.397  0.00  0.00    +0.000 C 
ATOM      6  C   UNL     1       1.096  -1.126   0.201  0.00  0.00    +0.000 C 
ATOM      7  C   UNL     1       1.291   0.265  -0.325  0.00  0.00    +0.000 C 
ATOM      8  N   UNL     1       1.065   1.399   0.582  0.00  0.00    +0.000 NA
ATOM      9  C   UNL     1       0.116   1.190  -0.494  0.00  0.00    +0.000 C 
ATOM     10  H   UNL     1       1.702   2.169   0.364  0.00  0.00    +0.000 HD
ENDROOT
TORSDOF 0
