REMARK  Name = ligand_987462
REMARK  3 active torsions:
REMARK  status: ('A' for Active; 'I' for Inactive)
REMARK    1  A    between atoms: C_1  and  C_2
REMARK    2  A    between atoms: C_5  and  O_6
REMARK    3  A    between atoms: C_7  and  C_8
REMARK                            x       y       z     vdW  Elec       q    Type
REMARK                         _______ _______ _______ _____ _____    ______ ____
ROOT
ATOM      1  C   UNL     1       0.992  -0.038  -0.115  0.00  0.00    +0.000 C 
ATOM      2  C   UNL     1       2.479  -0.157  -0.151  0.00  0.00    +0.000 C 
ATOM      3  C   UNL     1       3.143  -1.249   0.243  0.00  0.00    +0.000 C 
ATOM      4  C   UNL     1       4.629  -1.380   0.313  0.00  0.00    +0.000 C 
ATOM      5  C   UNL     1       4.809  -2.594   1.207  0.00  0.00    +0.000 C 
ATOM      6  C   UNL     1       3.392  -2.957   1.674  0.00  0.00    +0.000 C 
ATOM      7  C   UNL     1       3.015  -2.482   3.075  0.00  0.00    +0.000 C 
ATOM      8  O   UNL     1       2.478  -2.357   0.741  0.00  0.00    +0.000 OA
ENDROOT
BRANCH   5   9
ATOM      9  O   UNL     1       5.721  -2.346   2.273  0.00  0.00    +0.000 OA
ATOM     10  H   UNL     1       5.439  -1.536   2.730  0.00  0.00    +0.000 HD
ENDBRANCH   5   9
TORSDOF 1
