REMARK  Name = ligand_987500
REMARK  1 active torsions:
REMARK  status: ('A' for Active; 'I' for Inactive)
REMARK    1  A    between atoms: C_2  and  C_3
REMARK                            x       y       z     vdW  Elec       q    Type
REMARK                         _______ _______ _______ _____ _____    ______ ____
ROOT
ATOM      1  C   UNL     1       3.112   1.427   0.260  0.00  0.00    +0.000 C 
ATOM      2  C   UNL     1       2.802   2.163   1.349  0.00  0.00    +0.000 C 
ATOM      3  C   UNL     1       3.519   3.395   1.822  0.00  0.00    +0.000 C 
ATOM      4  O   UNL     1       4.251   4.026   0.780  0.00  0.00    +0.000 OA
ATOM      5  C   UNL     1       5.506   3.410   0.537  0.00  0.00    +0.000 C 
ATOM      6  O   UNL     1       5.439   2.025   0.234  0.00  0.00    +0.000 OA
ATOM      7  C   UNL     1       4.326   1.707  -0.599  0.00  0.00    +0.000 C 
ENDROOT
BRANCH   1   9
ATOM      8  C   UNL     1       1.048   0.188  -0.306  0.00  0.00    +0.000 C 
ATOM      9  C   UNL     1       2.363   0.225  -0.066  0.00  0.00    +0.000 C 
ENDBRANCH   1   9
TORSDOF 1
