REMARK  Name = ligand_988647
REMARK  3 active torsions:
REMARK  status: ('A' for Active; 'I' for Inactive)
REMARK    1  A    between atoms: C_1  and  C_2
REMARK    2  A    between atoms: C_2  and  C_3
REMARK    3  A    between atoms: C_8  and  O_9
REMARK                            x       y       z     vdW  Elec       q    Type
REMARK                         _______ _______ _______ _____ _____    ______ ____
ROOT
ATOM      1  C   UNL     1       3.204  -0.862   0.183  0.00  0.00    +0.000 C 
ATOM      2  O   UNL     1       4.392  -0.496  -0.555  0.00  0.00    +0.000 OA
ATOM      3  C   UNL     1       4.300  -1.106  -1.853  0.00  0.00    +0.000 C 
ATOM      4  C   UNL     1       3.508  -2.349  -1.668  0.00  0.00    +0.000 C 
ATOM      5  C   UNL     1       2.006  -2.368  -1.683  0.00  0.00    +0.000 C 
ATOM      6  C   UNL     1       2.758  -2.186  -0.392  0.00  0.00    +0.000 C 
ENDROOT
BRANCH   1   8
ATOM      7  C   UNL     1       0.897   0.065   0.790  0.00  0.00    +0.000 C 
ATOM      8  C   UNL     1       2.203   0.287   0.050  0.00  0.00    +0.000 C 
ENDBRANCH   1   8
BRANCH   6   9
ATOM      9  O   UNL     1       2.799  -3.318   0.489  0.00  0.00    +0.000 OA
ATOM     10  H   UNL     1       2.068  -3.298   1.129  0.00  0.00    +0.000 HD
ENDBRANCH   6   9
TORSDOF 2
