REMARK  Name = ligand_988883
REMARK  3 active torsions:
REMARK  status: ('A' for Active; 'I' for Inactive)
REMARK    1  A    between atoms: C_1  and  C_2
REMARK    2  A    between atoms: C_2  and  C_3
REMARK    3  A    between atoms: C_8  and  C_9
REMARK                            x       y       z     vdW  Elec       q    Type
REMARK                         _______ _______ _______ _____ _____    ______ ____
ROOT
ATOM      1  C   UNL     1       3.087  -1.412  -0.145  0.00  0.00    +0.000 C 
ATOM      2  O   UNL     1       2.193  -2.513  -0.429  0.00  0.00    +0.000 OA
ATOM      3  C   UNL     1       2.793  -3.614   0.173  0.00  0.00    +0.000 C 
ATOM      4  C   UNL     1       2.259  -4.837   0.096  0.00  0.00    +0.000 C 
ATOM      5  C   UNL     1       4.006  -3.249   0.972  0.00  0.00    +0.000 C 
ATOM      6  C   UNL     1       3.749  -1.766   1.191  0.00  0.00    +0.000 C 
ATOM      7  C   UNL     1       2.854  -1.542   2.416  0.00  0.00    +0.000 C 
ENDROOT
BRANCH   1   9
ATOM      8  C   UNL     1       3.241   1.118   0.062  0.00  0.00    +0.000 C 
ATOM      9  C   UNL     1       2.338  -0.079  -0.205  0.00  0.00    +0.000 C 
ENDBRANCH   1   9
TORSDOF 1
