REMARK  Name = ligand_989481
REMARK  5 active torsions:
REMARK  status: ('A' for Active; 'I' for Inactive)
REMARK    1  A    between atoms: C_1  and  C_2
REMARK    2  A    between atoms: C_2  and  C_3
REMARK    3  A    between atoms: C_3  and  C_4
REMARK    4  A    between atoms: C_4  and  C_7
REMARK    5  A    between atoms: C_7  and  C_8
REMARK                            x       y       z     vdW  Elec       q    Type
REMARK                         _______ _______ _______ _____ _____    ______ ____
ROOT
ATOM      1  C   UNL     1       4.359  -0.078   1.405  0.00  0.00    +0.000 C 
ATOM      2  C   UNL     1       5.368  -1.215   1.318  0.00  0.00    +0.000 C 
ATOM      3  C   UNL     1       5.225  -0.464   2.602  0.00  0.00    +0.000 C 
ENDROOT
BRANCH   1   4
ATOM      4  C   UNL     1       4.690   1.251   0.774  0.00  0.00    +0.000 C 
ATOM      5  C   UNL     1       5.046   1.254  -0.682  0.00  0.00    +0.000 C 
ATOM      6  O   UNL     1       4.668   2.274   1.452  0.00  0.00    +0.000 OA
ENDBRANCH   1   4
BRANCH   1   7
ATOM      7  C   UNL     1       2.881  -0.442   1.481  0.00  0.00    +0.000 C 
BRANCH   7   9
ATOM      8  C   UNL     1       0.932  -1.557   0.327  0.00  0.00    +0.000 C 
ATOM      9  C   UNL     1       2.397  -1.163   0.221  0.00  0.00    +0.000 C 
ENDBRANCH   7   9
ENDBRANCH   1   7
TORSDOF 3
