REMARK  Name = ligand_989418
REMARK  2 active torsions:
REMARK  status: ('A' for Active; 'I' for Inactive)
REMARK    1  A    between atoms: C_1  and  C_2
REMARK    2  A    between atoms: C_3  and  C_4
REMARK                            x       y       z     vdW  Elec       q    Type
REMARK                         _______ _______ _______ _____ _____    ______ ____
ROOT
ATOM      1  C   UNL     1       4.564   0.776  -0.523  0.00  0.00    +0.000 C 
ATOM      2  C   UNL     1       5.585   1.537  -1.306  0.00  0.00    +0.000 C 
ATOM      3  O   UNL     1       5.390   1.868  -2.727  0.00  0.00    +0.000 OA
ATOM      4  C   UNL     1       5.640   0.672  -3.386  0.00  0.00    +0.000 C 
ATOM      5  C   UNL     1       5.752  -0.385  -2.577  0.00  0.00    +0.000 C 
ATOM      6  C   UNL     1       5.676   0.004  -1.175  0.00  0.00    +0.000 C 
ENDROOT
BRANCH   1   9
ATOM      7  C   UNL     1       0.788  -0.064  -0.298  0.00  0.00    +0.000 C 
ATOM      8  C   UNL     1       2.268  -0.006  -0.105  0.00  0.00    +0.000 C 
ATOM      9  C   UNL     1       3.155   0.624  -0.898  0.00  0.00    +0.000 C 
ENDBRANCH   1   9
TORSDOF 1
