REMARK  Name = ligand_990316
REMARK  4 active torsions:
REMARK  status: ('A' for Active; 'I' for Inactive)
REMARK    1  A    between atoms: C_1  and  C_2
REMARK    2  A    between atoms: C_2  and  C_3
REMARK    3  A    between atoms: C_3  and  C_4
REMARK    4  A    between atoms: C_6  and  O_7
REMARK                            x       y       z     vdW  Elec       q    Type
REMARK                         _______ _______ _______ _____ _____    ______ ____
ROOT
ATOM      1  C   UNL     1       4.616   1.118   0.881  0.00  0.00    +0.000 C 
ATOM      2  C   UNL     1       5.416   0.036   0.872  0.00  0.00    +0.000 C 
ATOM      3  C   UNL     1       6.851   0.462   0.890  0.00  0.00    +0.000 C 
ATOM      4  C   UNL     1       6.733   1.954   0.904  0.00  0.00    +0.000 C 
ATOM      5  C   UNL     1       5.441   2.308   0.917  0.00  0.00    +0.000 C 
ENDROOT
BRANCH   3   6
ATOM      6  O   UNL     1       7.489   0.044  -0.297  0.00  0.00    +0.000 OA
ATOM      7  H   UNL     1       6.944   0.377  -1.030  0.00  0.00    +0.000 HD
ENDBRANCH   3   6
BRANCH   1   8
ATOM      8  C   UNL     1       3.121   1.159   0.859  0.00  0.00    +0.000 C 
BRANCH   8  10
ATOM      9  C   UNL     1       1.059   1.934  -0.380  0.00  0.00    +0.000 C 
ATOM     10  C   UNL     1       2.579   1.912  -0.361  0.00  0.00    +0.000 C 
ENDBRANCH   8  10
ENDBRANCH   1   8
TORSDOF 3
