REMARK  Name = ligand_990589
REMARK  3 active torsions:
REMARK  status: ('A' for Active; 'I' for Inactive)
REMARK    1  A    between atoms: C_1  and  C_2
REMARK    2  A    between atoms: C_3  and  C_4
REMARK    3  A    between atoms: C_8  and  C_9
REMARK                            x       y       z     vdW  Elec       q    Type
REMARK                         _______ _______ _______ _____ _____    ______ ____
ROOT
ATOM      1  C   UNL     1       5.364  -0.010  -0.097  0.00  0.00    +0.000 C 
ATOM      2  C   UNL     1       6.164  -1.060  -0.200  0.00  0.00    +0.000 C 
ATOM      3  O   UNL     1       7.516  -0.771  -0.238  0.00  0.00    +0.000 OA
ATOM      4  C   UNL     1       7.539   0.662  -0.452  0.00  0.00    +0.000 C 
ATOM      5  C   UNL     1       6.182   1.230  -0.030  0.00  0.00    +0.000 C 
ATOM      6  C   UNL     1       5.704   2.362  -0.932  0.00  0.00    +0.000 C 
ENDROOT
BRANCH   1   9
ATOM      7  C   UNL     1       1.020  -0.010  -0.097  0.00  0.00    +0.000 C 
ATOM      8  C   UNL     1       2.540  -0.010  -0.097  0.00  0.00    +0.000 C 
ATOM      9  C   UNL     1       3.844  -0.010  -0.097  0.00  0.00    +0.000 C 
ENDBRANCH   1   9
TORSDOF 1
