REMARK  Name = ligand_990540
REMARK  4 active torsions:
REMARK  status: ('A' for Active; 'I' for Inactive)
REMARK    1  A    between atoms: C_1  and  C_2
REMARK    2  A    between atoms: C_2  and  C_3
REMARK    3  A    between atoms: C_3  and  C_4
REMARK    4  A    between atoms: C_7  and  C_8
REMARK                            x       y       z     vdW  Elec       q    Type
REMARK                         _______ _______ _______ _____ _____    ______ ____
ROOT
ATOM      1  C   UNL     1       4.432  -1.343   0.017  0.00  0.00    +0.000 C 
ATOM      2  C   UNL     1       5.157  -1.942   1.228  0.00  0.00    +0.000 C 
ATOM      3  O   UNL     1       6.165  -0.903   1.176  0.00  0.00    +0.000 OA
ATOM      4  C   UNL     1       5.286  -0.088   0.332  0.00  0.00    +0.000 C 
ENDROOT
BRANCH   4   5
ATOM      5  C   UNL     1       4.679   1.120   1.089  0.00  0.00    +0.000 C 
ATOM      6  O   UNL     1       3.883   1.948   0.639  0.00  0.00    +0.000 OA
ENDBRANCH   4   5
BRANCH   1   7
ATOM      7  C   UNL     1       2.912  -1.383   0.117  0.00  0.00    +0.000 C 
BRANCH   7   9
ATOM      8  C   UNL     1       0.746  -0.900  -1.078  0.00  0.00    +0.000 C 
ATOM      9  C   UNL     1       2.263  -0.758  -1.116  0.00  0.00    +0.000 C 
ENDBRANCH   7   9
ENDBRANCH   1   7
TORSDOF 3
