REMARK  Name = ligand_990699
REMARK  2 active torsions:
REMARK  status: ('A' for Active; 'I' for Inactive)
REMARK    1  A    between atoms: C_1  and  C_2
REMARK    2  A    between atoms: C_2  and  C_3
REMARK                            x       y       z     vdW  Elec       q    Type
REMARK                         _______ _______ _______ _____ _____    ______ ____
ROOT
ATOM      1  C   UNL     1       0.885   0.160  -0.003  0.00  0.00    +0.000 C 
ATOM      2  C   UNL     1       2.394   0.085  -0.017  0.00  0.00    +0.000 C 
ATOM      3  C   UNL     1       3.100   1.412  -0.135  0.00  0.00    +0.000 C 
ATOM      4  C   UNL     1       3.077  -1.084   0.038  0.00  0.00    +0.000 C 
ATOM      5  C   UNL     1       4.598  -1.162   0.002  0.00  0.00    +0.000 C 
ATOM      6  O   UNL     1       5.093  -2.280   0.748  0.00  0.00    +0.000 OA
ATOM      7  C   UNL     1       4.614  -3.519   0.230  0.00  0.00    +0.000 C 
ATOM      8  C   UNL     1       3.123  -3.516   0.174  0.00  0.00    +0.000 C 
ATOM      9  C   UNL     1       2.413  -2.380   0.113  0.00  0.00    +0.000 C 
ENDROOT
TORSDOF 0
