REMARK  Name = ligand_990670
REMARK  2 active torsions:
REMARK  status: ('A' for Active; 'I' for Inactive)
REMARK    1  A    between atoms: C_2  and  C_3
REMARK    2  A    between atoms: C_3  and  C_4
REMARK                            x       y       z     vdW  Elec       q    Type
REMARK                         _______ _______ _______ _____ _____    ______ ____
ROOT
ATOM      1  C   UNL     1       4.226   0.392  -1.362  0.00  0.00    +0.000 C 
ATOM      2  C   UNL     1       4.875  -0.495  -2.134  0.00  0.00    +0.000 C 
ATOM      3  O   UNL     1       5.429  -0.193  -3.359  0.00  0.00    +0.000 OA
ATOM      4  C   UNL     1       5.443   1.130  -3.745  0.00  0.00    +0.000 C 
ATOM      5  C   UNL     1       4.806   2.103  -3.086  0.00  0.00    +0.000 C 
ATOM      6  C   UNL     1       4.001   1.802  -1.858  0.00  0.00    +0.000 C 
ENDROOT
BRANCH   1   7
ATOM      7  C   UNL     1       3.735   0.044   0.013  0.00  0.00    +0.000 C 
BRANCH   7   9
ATOM      8  C   UNL     1       0.931   0.365   0.101  0.00  0.00    +0.000 C 
ATOM      9  C   UNL     1       2.226   0.217   0.061  0.00  0.00    +0.000 C 
ENDBRANCH   7   9
ENDBRANCH   1   7
TORSDOF 2
