REMARK  Name = ligand_991247
REMARK  4 active torsions:
REMARK  status: ('A' for Active; 'I' for Inactive)
REMARK    1  A    between atoms: C_1  and  C_2
REMARK    2  A    between atoms: C_2  and  C_3
REMARK    3  A    between atoms: C_2  and  C_4
REMARK    4  A    between atoms: C_4  and  O_5
REMARK                            x       y       z     vdW  Elec       q    Type
REMARK                         _______ _______ _______ _____ _____    ______ ____
ROOT
ATOM      1  C   UNL     1       2.896  -0.657   1.242  0.00  0.00    +0.000 C 
ATOM      2  C   UNL     1       2.769  -2.173   1.236  0.00  0.00    +0.000 C 
ATOM      3  C   UNL     1       2.452  -2.544   2.673  0.00  0.00    +0.000 C 
ATOM      4  O   UNL     1       2.155  -1.351   3.399  0.00  0.00    +0.000 OA
ATOM      5  C   UNL     1       2.054  -0.270   2.459  0.00  0.00    +0.000 C 
ENDROOT
BRANCH   1   7
ATOM      6  C   UNL     1       2.533   1.546  -0.013  0.00  0.00    +0.000 C 
ATOM      7  C   UNL     1       2.410   0.018  -0.065  0.00  0.00    +0.000 C 
ATOM      8  C   UNL     1       3.138  -0.497  -1.312  0.00  0.00    +0.000 C 
ENDBRANCH   1   7
BRANCH   1   9
ATOM      9  O   UNL     1       4.261  -0.306   1.500  0.00  0.00    +0.000 OA
ATOM     10  H   UNL     1       4.817  -0.705   0.810  0.00  0.00    +0.000 HD
ENDBRANCH   1   9
TORSDOF 2
