REMARK  Name = ligand_991225
REMARK  2 active torsions:
REMARK  status: ('A' for Active; 'I' for Inactive)
REMARK    1  A    between atoms: C_1  and  C_2
REMARK    2  A    between atoms: C_2  and  C_4
REMARK                            x       y       z     vdW  Elec       q    Type
REMARK                         _______ _______ _______ _____ _____    ______ ____
ROOT
ATOM      1  C   UNL     1       3.176  -0.673   1.205  0.00  0.00    +0.000 C 
ATOM      2  O   UNL     1       4.478  -0.177   1.522  0.00  0.00    +0.000 OA
ATOM      3  C   UNL     1       5.553  -0.878   0.916  0.00  0.00    +0.000 C 
ATOM      4  C   UNL     1       5.327  -2.345   0.893  0.00  0.00    +0.000 C 
ATOM      5  C   UNL     1       4.108  -2.849   1.075  0.00  0.00    +0.000 C 
ATOM      6  O   UNL     1       2.992  -2.097   1.273  0.00  0.00    +0.000 OA
ENDROOT
BRANCH   1   8
ATOM      7  C   UNL     1       1.187  -0.608  -0.396  0.00  0.00    +0.000 C 
ATOM      8  C   UNL     1       2.576  -0.108  -0.080  0.00  0.00    +0.000 C 
ATOM      9  C   UNL     1       3.153   0.818  -0.867  0.00  0.00    +0.000 C 
ENDBRANCH   1   8
TORSDOF 1
