REMARK  Name = ligand_991327
REMARK  4 active torsions:
REMARK  status: ('A' for Active; 'I' for Inactive)
REMARK    1  A    between atoms: C_1  and  C_2
REMARK    2  A    between atoms: C_3  and  C_4
REMARK    3  A    between atoms: C_3  and  C_5
REMARK    4  A    between atoms: C_7  and  C_8
REMARK                            x       y       z     vdW  Elec       q    Type
REMARK                         _______ _______ _______ _____ _____    ______ ____
ROOT
ATOM      1  C   UNL     1       4.595   1.011  -0.854  0.00  0.00    +0.000 C 
ATOM      2  C   UNL     1       5.399   1.503  -2.026  0.00  0.00    +0.000 C 
ATOM      3  C   UNL     1       5.375   0.029  -1.706  0.00  0.00    +0.000 C 
ENDROOT
BRANCH   1   6
ATOM      4  C   UNL     1       0.939  -0.028  -0.039  0.00  0.00    +0.000 C 
ATOM      5  C   UNL     1       2.426   0.062  -0.170  0.00  0.00    +0.000 C 
ATOM      6  C   UNL     1       3.114   0.999  -0.857  0.00  0.00    +0.000 C 
ATOM      7  C   UNL     1       2.417   2.122  -1.587  0.00  0.00    +0.000 C 
ENDBRANCH   1   6
BRANCH   3   8
ATOM      8  C   UNL     1       4.735  -0.906  -2.662  0.00  0.00    +0.000 C 
ATOM      9  O   UNL     1       5.373  -1.835  -3.145  0.00  0.00    +0.000 OA
ENDBRANCH   3   8
TORSDOF 2
