REMARK  Name = ligand_9915
REMARK  1 active torsions:
REMARK  status: ('A' for Active; 'I' for Inactive)
REMARK    1  A    between atoms: C_3  and  C_4
REMARK                            x       y       z     vdW  Elec       q    Type
REMARK                         _______ _______ _______ _____ _____    ______ ____
ROOT
ATOM      1  C   UNL     1      -1.502  -0.886  -1.234  0.00  0.00    +0.000 C 
ATOM      2  C   UNL     1      -0.593  -1.098  -2.431  0.00  0.00    +0.000 C 
ATOM      3  C   UNL     1      -0.726  -0.441  -3.596  0.00  0.00    +0.000 C 
ATOM      4  C   UNL     1      -1.813   0.564  -3.858  0.00  0.00    +0.000 C 
ATOM      5  C   UNL     1      -2.778   0.712  -2.717  0.00  0.00    +0.000 C 
ATOM      6  C   UNL     1      -2.642   0.064  -1.550  0.00  0.00    +0.000 C 
ENDROOT
BRANCH   1   9
ATOM      7  C   UNL     1      -0.469  -1.411   1.125  0.00  0.00    +0.000 C 
ATOM      8  C   UNL     1      -1.375  -0.231   1.327  0.00  0.00    +0.000 C 
ATOM      9  C   UNL     1      -0.711  -0.447  -0.015  0.00  0.00    +0.000 C 
ENDBRANCH   1   9
TORSDOF 1
