REMARK  Name = ligand_992326
REMARK  3 active torsions:
REMARK  status: ('A' for Active; 'I' for Inactive)
REMARK    1  A    between atoms: C_1  and  C_2
REMARK    2  A    between atoms: C_2  and  C_6
REMARK    3  A    between atoms: C_3  and  C_4
REMARK                            x       y       z     vdW  Elec       q    Type
REMARK                         _______ _______ _______ _____ _____    ______ ____
ROOT
ATOM      1  C   UNL     1       0.958  -0.022   0.063  0.00  0.00    +0.000 C 
ATOM      2  C   UNL     1       2.451   0.139   0.011  0.00  0.00    +0.000 C 
ATOM      3  C   UNL     1       3.112   1.244  -0.391  0.00  0.00    +0.000 C 
ENDROOT
BRANCH   2   4
ATOM      4  C   UNL     1       3.303  -1.036   0.405  0.00  0.00    +0.000 C 
ATOM      5  C   UNL     1       2.645  -2.338   0.895  0.00  0.00    +0.000 C 
ATOM      6  O   UNL     1       3.567  -2.410   2.016  0.00  0.00    +0.000 OA
ATOM      7  C   UNL     1       3.893  -1.006   1.825  0.00  0.00    +0.000 C 
ENDBRANCH   2   4
BRANCH   3   8
ATOM      8  C   UNL     1       2.524   2.484  -0.844  0.00  0.00    +0.000 C 
ATOM      9  C   UNL     1       3.253   3.535  -1.237  0.00  0.00    +0.000 C 
ENDBRANCH   3   8
TORSDOF 2
