REMARK  Name = ligand_99240
REMARK  0 active torsions:
REMARK  status: ('A' for Active; 'I' for Inactive)
REMARK                            x       y       z     vdW  Elec       q    Type
REMARK                         _______ _______ _______ _____ _____    ______ ____
ROOT
ATOM      1  C   UNL     1       0.937  -1.449  -0.919  0.00  0.00    +0.000 C 
ATOM      2  N   UNL     1       0.346  -1.856   0.376  0.00  0.00    +0.000 NA
ATOM      3  C   UNL     1      -0.305  -0.620   0.871  0.00  0.00    +0.000 C 
ATOM      4  C   UNL     1      -1.474  -0.338  -0.085  0.00  0.00    +0.000 C 
ATOM      5  C   UNL     1      -0.734   0.491  -1.145  0.00  0.00    +0.000 C 
ATOM      6  N   UNL     1      -0.694   1.893  -0.675  0.00  0.00    +0.000 NA
ATOM      7  C   UNL     1       0.203   1.869   0.496  0.00  0.00    +0.000 C 
ATOM      8  C   UNL     1       0.739   0.450   0.508  0.00  0.00    +0.000 C 
ATOM      9  C   UNL     1       0.733   0.060  -0.964  0.00  0.00    +0.000 C 
ATOM     10  H   UNL     1       1.101  -2.105   1.018  0.00  0.00    +0.000 HD
ATOM     11  H   UNL     1      -1.626   2.199  -0.391  0.00  0.00    +0.000 HD
ENDROOT
TORSDOF 0
