REMARK  Name = ligand_993055
REMARK  6 active torsions:
REMARK  status: ('A' for Active; 'I' for Inactive)
REMARK    1  A    between atoms: C_1  and  C_2
REMARK    2  A    between atoms: C_2  and  C_3
REMARK    3  A    between atoms: C_2  and  C_4
REMARK    4  A    between atoms: C_2  and  C_6
REMARK    5  A    between atoms: C_6  and  C_8
REMARK    6  A    between atoms: C_8  and  O_9
REMARK                            x       y       z     vdW  Elec       q    Type
REMARK                         _______ _______ _______ _____ _____    ______ ____
ROOT
ATOM      1  C   UNL     1       0.914   0.083   0.129  0.00  0.00    +0.000 C 
ATOM      2  C   UNL     1       2.453   0.054   0.051  0.00  0.00    +0.000 C 
ATOM      3  C   UNL     1       2.960   1.482   0.355  0.00  0.00    +0.000 C 
ENDROOT
BRANCH   2   4
ATOM      4  C   UNL     1       2.960  -0.867   1.149  0.00  0.00    +0.000 C 
ATOM      5  C   UNL     1       3.394  -1.657   2.091  0.00  0.00    +0.000 C 
ENDBRANCH   2   4
BRANCH   2   6
ATOM      6  C   UNL     1       2.946  -0.470  -1.326  0.00  0.00    +0.000 C 
ATOM      7  C   UNL     1       3.710   0.262  -2.165  0.00  0.00    +0.000 C 
BRANCH   6   8
ATOM      8  C   UNL     1       2.527  -1.887  -1.686  0.00  0.00    +0.000 C 
BRANCH   8   9
ATOM      9  O   UNL     1       2.981  -2.279  -2.977  0.00  0.00    +0.000 OA
ATOM     10  H   UNL     1       2.573  -1.667  -3.611  0.00  0.00    +0.000 HD
ENDBRANCH   8   9
ENDBRANCH   6   8
ENDBRANCH   2   6
TORSDOF 4
