REMARK  Name = ligand_993342
REMARK  7 active torsions:
REMARK  status: ('A' for Active; 'I' for Inactive)
REMARK    1  A    between atoms: C_1  and  C_2
REMARK    2  A    between atoms: C_3  and  C_4
REMARK    3  A    between atoms: C_4  and  C_5
REMARK    4  A    between atoms: C_5  and  C_6
REMARK    5  A    between atoms: C_6  and  C_7
REMARK    6  A    between atoms: C_7  and  C_8
REMARK    7  A    between atoms: C_7  and  O_9
REMARK                            x       y       z     vdW  Elec       q    Type
REMARK                         _______ _______ _______ _____ _____    ______ ____
ROOT
ATOM      1  C   UNL     1       5.847  -0.659  -1.373  0.00  0.00    +0.000 C 
ENDROOT
BRANCH   1   2
ATOM      2  C   UNL     1       5.334  -0.064  -0.077  0.00  0.00    +0.000 C 
BRANCH   2   5
ATOM      3  C   UNL     1       0.990  -0.078  -0.070  0.00  0.00    +0.000 C 
ATOM      4  C   UNL     1       2.510  -0.073  -0.072  0.00  0.00    +0.000 C 
ATOM      5  C   UNL     1       3.814  -0.068  -0.074  0.00  0.00    +0.000 C 
ENDBRANCH   2   5
ENDBRANCH   1   2
BRANCH   1   6
ATOM      6  C   UNL     1       7.375  -0.667  -1.411  0.00  0.00    +0.000 C 
BRANCH   6   7
ATOM      7  C   UNL     1       7.894  -1.266  -2.722  0.00  0.00    +0.000 C 
ATOM      8  C   UNL     1       9.409  -1.284  -2.772  0.00  0.00    +0.000 C 
BRANCH   7   9
ATOM      9  O   UNL     1       7.414  -2.601  -2.863  0.00  0.00    +0.000 OA
ATOM     10  H   UNL     1       7.743  -3.120  -2.111  0.00  0.00    +0.000 HD
ENDBRANCH   7   9
ENDBRANCH   6   7
ENDBRANCH   1   6
TORSDOF 5
