REMARK  Name = ligand_993476
REMARK  6 active torsions:
REMARK  status: ('A' for Active; 'I' for Inactive)
REMARK    1  A    between atoms: C_1  and  C_2
REMARK    2  A    between atoms: C_2  and  C_3
REMARK    3  A    between atoms: C_3  and  C_4
REMARK    4  A    between atoms: C_3  and  C_7
REMARK    5  A    between atoms: C_5  and  C_6
REMARK    6  A    between atoms: C_7  and  C_8
REMARK                            x       y       z     vdW  Elec       q    Type
REMARK                         _______ _______ _______ _____ _____    ______ ____
ROOT
ATOM      1  C   UNL     1       2.991   1.091   0.989  0.00  0.00    +0.000 C 
ENDROOT
BRANCH   1   2
ATOM      2  C   UNL     1       2.523   0.826   2.399  0.00  0.00    +0.000 C 
ATOM      3  C   UNL     1       1.758   1.672   3.106  0.00  0.00    +0.000 C 
ATOM      4  C   UNL     1       1.259   1.391   4.487  0.00  0.00    +0.000 C 
ENDBRANCH   1   2
BRANCH   1   5
ATOM      5  C   UNL     1       4.523   1.134   1.005  0.00  0.00    +0.000 C 
ATOM      6  C   UNL     1       5.178   2.448   1.356  0.00  0.00    +0.000 C 
ATOM      7  O   UNL     1       5.216   0.141   0.767  0.00  0.00    +0.000 OA
ENDBRANCH   1   5
BRANCH   1   9
ATOM      8  C   UNL     1       0.976  -0.039  -0.110  0.00  0.00    +0.000 C 
ATOM      9  C   UNL     1       2.495   0.028  -0.005  0.00  0.00    +0.000 C 
ENDBRANCH   1   9
TORSDOF 3
