REMARK  Name = ligand_993509
REMARK  8 active torsions:
REMARK  status: ('A' for Active; 'I' for Inactive)
REMARK    1  A    between atoms: C_1  and  C_2
REMARK    2  A    between atoms: C_2  and  C_3
REMARK    3  A    between atoms: C_3  and  C_4
REMARK    4  A    between atoms: C_3  and  C_5
REMARK    5  A    between atoms: C_3  and  C_6
REMARK    6  A    between atoms: C_6  and  C_7
REMARK    7  A    between atoms: C_6  and  C_8
REMARK    8  A    between atoms: C_6  and  O_9
REMARK                            x       y       z     vdW  Elec       q    Type
REMARK                         _______ _______ _______ _____ _____    ______ ____
ROOT
ATOM      1  C   UNL     1       2.862  -0.649  -0.937  0.00  0.00    +0.000 C 
ATOM      2  C   UNL     1       2.353  -2.103  -1.064  0.00  0.00    +0.000 C 
ATOM      3  C   UNL     1       2.617   0.045  -2.293  0.00  0.00    +0.000 C 
ENDROOT
BRANCH   1   4
ATOM      4  C   UNL     1       4.393  -0.641  -0.542  0.00  0.00    +0.000 C 
ATOM      5  C   UNL     1       5.000   0.773  -0.414  0.00  0.00    +0.000 C 
ATOM      6  C   UNL     1       5.297  -1.535  -1.417  0.00  0.00    +0.000 C 
BRANCH   4   7
ATOM      7  O   UNL     1       6.656  -1.472  -0.987  0.00  0.00    +0.000 OA
ATOM      8  H   UNL     1       6.665  -1.455  -0.015  0.00  0.00    +0.000 HD
ENDBRANCH   4   7
ENDBRANCH   1   4
BRANCH   1  10
ATOM      9  C   UNL     1       0.565   0.201   0.028  0.00  0.00    +0.000 C 
ATOM     10  C   UNL     1       2.074   0.076   0.202  0.00  0.00    +0.000 C 
ENDBRANCH   1  10
TORSDOF 3
