REMARK  Name = ligand_993623
REMARK  7 active torsions:
REMARK  status: ('A' for Active; 'I' for Inactive)
REMARK    1  A    between atoms: C_1  and  C_2
REMARK    2  A    between atoms: C_2  and  C_3
REMARK    3  A    between atoms: C_4  and  C_5
REMARK    4  A    between atoms: C_5  and  C_6
REMARK    5  A    between atoms: C_5  and  C_7
REMARK    6  A    between atoms: C_7  and  C_8
REMARK    7  A    between atoms: C_8  and  O_9
REMARK                            x       y       z     vdW  Elec       q    Type
REMARK                         _______ _______ _______ _____ _____    ______ ____
ROOT
ATOM      1  C   UNL     1       3.919   2.141  -3.416  0.00  0.00    +0.000 C 
ATOM      2  C   UNL     1       4.657   3.378  -2.903  0.00  0.00    +0.000 C 
ENDROOT
BRANCH   1   4
ATOM      3  C   UNL     1       2.978   0.694  -1.181  0.00  0.00    +0.000 C 
ATOM      4  C   UNL     1       3.412   1.362  -2.213  0.00  0.00    +0.000 C 
BRANCH   3   6
ATOM      5  C   UNL     1       0.953  -0.093   0.035  0.00  0.00    +0.000 C 
ATOM      6  C   UNL     1       2.471  -0.084   0.022  0.00  0.00    +0.000 C 
ENDBRANCH   3   6
ENDBRANCH   1   4
BRANCH   1   7
ATOM      7  C   UNL     1       4.828   1.257  -4.278  0.00  0.00    +0.000 C 
BRANCH   7   8
ATOM      8  C   UNL     1       4.107   0.015  -4.808  0.00  0.00    +0.000 C 
BRANCH   8   9
ATOM      9  O   UNL     1       5.007  -0.758  -5.596  0.00  0.00    +0.000 OA
ATOM     10  H   UNL     1       5.248  -0.221  -6.370  0.00  0.00    +0.000 HD
ENDBRANCH   8   9
ENDBRANCH   7   8
ENDBRANCH   1   7
TORSDOF 5
