REMARK  Name = ligand_993781
REMARK  7 active torsions:
REMARK  status: ('A' for Active; 'I' for Inactive)
REMARK    1  A    between atoms: C_1  and  C_2
REMARK    2  A    between atoms: C_2  and  C_3
REMARK    3  A    between atoms: C_4  and  C_5
REMARK    4  A    between atoms: C_4  and  C_6
REMARK    5  A    between atoms: C_6  and  C_7
REMARK    6  A    between atoms: C_6  and  O_8
REMARK    7  A    between atoms: O_8  and  C_9
REMARK                            x       y       z     vdW  Elec       q    Type
REMARK                         _______ _______ _______ _____ _____    ______ ____
ROOT
ATOM      1  C   UNL     1       3.115  -0.038  -1.242  0.00  0.00    +0.000 C 
ATOM      2  C   UNL     1       4.432   0.015  -1.537  0.00  0.00    +0.000 C 
ATOM      3  C   UNL     1       5.526   0.001  -0.500  0.00  0.00    +0.000 C 
ENDROOT
BRANCH   1   5
ATOM      4  C   UNL     1       2.338  -1.515   0.619  0.00  0.00    +0.000 C 
ATOM      5  C   UNL     1       2.494  -0.085   0.125  0.00  0.00    +0.000 C 
ENDBRANCH   1   5
BRANCH   2   6
ATOM      6  C   UNL     1       4.894   0.018  -2.989  0.00  0.00    +0.000 C 
ATOM      7  C   UNL     1       5.675   1.286  -3.332  0.00  0.00    +0.000 C 
BRANCH   6   8
ATOM      8  O   UNL     1       5.754  -1.100  -3.239  0.00  0.00    +0.000 OA
ATOM      9  C   UNL     1       5.061  -2.343  -3.256  0.00  0.00    +0.000 C 
ENDBRANCH   6   8
ENDBRANCH   2   6
TORSDOF 3
