REMARK  Name = ligand_993738
REMARK  7 active torsions:
REMARK  status: ('A' for Active; 'I' for Inactive)
REMARK    1  A    between atoms: C_1  and  C_2
REMARK    2  A    between atoms: C_2  and  C_3
REMARK    3  A    between atoms: C_3  and  C_4
REMARK    4  A    between atoms: C_4  and  C_5
REMARK    5  A    between atoms: C_6  and  C_7
REMARK    6  A    between atoms: C_7  and  C_8
REMARK    7  A    between atoms: C_8  and  O_9
REMARK                            x       y       z     vdW  Elec       q    Type
REMARK                         _______ _______ _______ _____ _____    ______ ____
ROOT
ATOM      1  C   UNL     1       5.073  -2.329   1.454  0.00  0.00    +0.000 C 
ATOM      2  C   UNL     1       5.859  -2.219   2.535  0.00  0.00    +0.000 C 
ENDROOT
BRANCH   1   3
ATOM      3  C   UNL     1       4.541  -1.149   0.695  0.00  0.00    +0.000 C 
BRANCH   3   4
ATOM      4  C   UNL     1       3.014  -1.140   0.688  0.00  0.00    +0.000 C 
BRANCH   4   6
ATOM      5  C   UNL     1       0.958   0.080  -0.092  0.00  0.00    +0.000 C 
ATOM      6  C   UNL     1       2.477   0.065  -0.084  0.00  0.00    +0.000 C 
ENDBRANCH   4   6
ENDBRANCH   3   4
ENDBRANCH   1   3
BRANCH   2   7
ATOM      7  C   UNL     1       6.380  -3.402   3.309  0.00  0.00    +0.000 C 
BRANCH   7   8
ATOM      8  C   UNL     1       5.908  -3.385   4.764  0.00  0.00    +0.000 C 
BRANCH   8   9
ATOM      9  O   UNL     1       4.489  -3.445   4.856  0.00  0.00    +0.000 OA
ATOM     10  H   UNL     1       4.139  -2.679   4.366  0.00  0.00    +0.000 HD
ENDBRANCH   8   9
ENDBRANCH   7   8
ENDBRANCH   2   7
TORSDOF 6
