REMARK  Name = ligand_994308
REMARK  6 active torsions:
REMARK  status: ('A' for Active; 'I' for Inactive)
REMARK    1  A    between atoms: C_1  and  C_2
REMARK    2  A    between atoms: C_2  and  C_3
REMARK    3  A    between atoms: C_2  and  C_4
REMARK    4  A    between atoms: C_2  and  C_6
REMARK    5  A    between atoms: C_6  and  O_7
REMARK    6  A    between atoms: C_6  and  C_8
REMARK                            x       y       z     vdW  Elec       q    Type
REMARK                         _______ _______ _______ _____ _____    ______ ____
ROOT
ATOM      1  C   UNL     1       1.023  -0.087  -0.086  0.00  0.00    +0.000 C 
ATOM      2  C   UNL     1       2.568  -0.062  -0.087  0.00  0.00    +0.000 C 
ATOM      3  C   UNL     1       3.051  -1.479   0.300  0.00  0.00    +0.000 C 
ENDROOT
BRANCH   2   4
ATOM      4  C   UNL     1       3.037   0.341  -1.494  0.00  0.00    +0.000 C 
ATOM      5  C   UNL     1       3.791  -0.373  -2.342  0.00  0.00    +0.000 C 
ENDBRANCH   2   4
BRANCH   2   6
ATOM      6  C   UNL     1       3.080   0.954   0.996  0.00  0.00    +0.000 C 
BRANCH   6   7
ATOM      7  O   UNL     1       4.507   0.956   1.059  0.00  0.00    +0.000 OA
ATOM      8  H   UNL     1       4.818   1.275   0.194  0.00  0.00    +0.000 HD
ENDBRANCH   6   7
BRANCH   6   9
ATOM      9  C   UNL     1       2.615   2.338   0.771  0.00  0.00    +0.000 C 
ATOM     10  C   UNL     1       2.215   3.451   0.571  0.00  0.00    +0.000 C 
ENDBRANCH   6   9
ENDBRANCH   2   6
TORSDOF 4
