REMARK  Name = ligand_994725
REMARK  4 active torsions:
REMARK  status: ('A' for Active; 'I' for Inactive)
REMARK    1  A    between atoms: C_2  and  C_3
REMARK    2  A    between atoms: C_3  and  C_4
REMARK    3  A    between atoms: C_4  and  C_6
REMARK    4  A    between atoms: C_6  and  C_8
REMARK                            x       y       z     vdW  Elec       q    Type
REMARK                         _______ _______ _______ _____ _____    ______ ____
ROOT
ATOM      1  C   UNL     1       4.607   0.647  -0.784  0.00  0.00    +0.000 C 
ATOM      2  C   UNL     1       5.117  -0.152   0.170  0.00  0.00    +0.000 C 
ENDROOT
BRANCH   1   3
ATOM      3  C   UNL     1       5.470   1.446  -1.710  0.00  0.00    +0.000 C 
ATOM      4  O   UNL     1       5.035   1.987  -2.721  0.00  0.00    +0.000 OA
BRANCH   3   5
ATOM      5  C   UNL     1       6.919   1.701  -1.374  0.00  0.00    +0.000 C 
ATOM      6  O   UNL     1       7.719   0.797  -1.191  0.00  0.00    +0.000 OA
ENDBRANCH   3   5
ENDBRANCH   1   3
BRANCH   1   7
ATOM      7  C   UNL     1       3.120   0.755  -1.019  0.00  0.00    +0.000 C 
BRANCH   7   9
ATOM      8  C   UNL     1       1.892   2.938  -0.797  0.00  0.00    +0.000 C 
ATOM      9  C   UNL     1       2.509   1.888  -0.240  0.00  0.00    +0.000 C 
ENDBRANCH   7   9
ENDBRANCH   1   7
TORSDOF 4
