REMARK  Name = ligand_994867
REMARK  6 active torsions:
REMARK  status: ('A' for Active; 'I' for Inactive)
REMARK    1  A    between atoms: C_1  and  C_2
REMARK    2  A    between atoms: C_2  and  C_3
REMARK    3  A    between atoms: C_2  and  C_6
REMARK    4  A    between atoms: C_3  and  C_4
REMARK    5  A    between atoms: C_6  and  C_8
REMARK    6  A    between atoms: C_8  and  O_9
REMARK                            x       y       z     vdW  Elec       q    Type
REMARK                         _______ _______ _______ _____ _____    ______ ____
ROOT
ATOM      1  C   UNL     1       1.016   0.012   0.019  0.00  0.00    +0.000 C 
ATOM      2  C   UNL     1       2.536  -0.093   0.130  0.00  0.00    +0.000 C 
ENDROOT
BRANCH   2   3
ATOM      3  C   UNL     1       3.009  -0.481   1.522  0.00  0.00    +0.000 C 
ATOM      4  C   UNL     1       2.569  -1.800   2.103  0.00  0.00    +0.000 C 
ATOM      5  C   UNL     1       3.804   0.329   2.244  0.00  0.00    +0.000 C 
ENDBRANCH   2   3
BRANCH   2   6
ATOM      6  C   UNL     1       3.085  -1.030  -0.953  0.00  0.00    +0.000 C 
ATOM      7  O   UNL     1       3.208  -2.250  -0.809  0.00  0.00    +0.000 OA
BRANCH   6   8
ATOM      8  C   UNL     1       3.465  -0.373  -2.278  0.00  0.00    +0.000 C 
BRANCH   8   9
ATOM      9  O   UNL     1       3.891  -1.319  -3.246  0.00  0.00    +0.000 OA
ATOM     10  H   UNL     1       4.104  -2.138  -2.753  0.00  0.00    +0.000 HD
ENDBRANCH   8   9
ENDBRANCH   6   8
ENDBRANCH   2   6
TORSDOF 4
