REMARK  Name = ligand_994980
REMARK  6 active torsions:
REMARK  status: ('A' for Active; 'I' for Inactive)
REMARK    1  A    between atoms: C_1  and  C_2
REMARK    2  A    between atoms: C_2  and  C_3
REMARK    3  A    between atoms: C_2  and  C_6
REMARK    4  A    between atoms: C_3  and  C_4
REMARK    5  A    between atoms: C_6  and  C_8
REMARK    6  A    between atoms: C_8  and  O_9
REMARK                            x       y       z     vdW  Elec       q    Type
REMARK                         _______ _______ _______ _____ _____    ______ ____
ROOT
ATOM      1  C   UNL     1       0.928   0.111   0.049  0.00  0.00    +0.000 C 
ATOM      2  C   UNL     1       2.452   0.111  -0.056  0.00  0.00    +0.000 C 
ENDROOT
BRANCH   2   3
ATOM      3  C   UNL     1       3.006   1.323   0.683  0.00  0.00    +0.000 C 
ATOM      4  O   UNL     1       3.228   2.399   0.122  0.00  0.00    +0.000 OA
BRANCH   3   5
ATOM      5  C   UNL     1       3.294   1.155   2.172  0.00  0.00    +0.000 C 
BRANCH   5   6
ATOM      6  O   UNL     1       3.758   2.359   2.763  0.00  0.00    +0.000 OA
ATOM      7  H   UNL     1       4.091   2.916   2.031  0.00  0.00    +0.000 HD
ENDBRANCH   5   6
ENDBRANCH   3   5
ENDBRANCH   2   3
BRANCH   2   8
ATOM      8  C   UNL     1       2.949   0.138  -1.506  0.00  0.00    +0.000 C 
BRANCH   8   9
ATOM      9  C   UNL     1       2.561  -1.068  -2.253  0.00  0.00    +0.000 C 
ATOM     10  C   UNL     1       2.225  -2.037  -2.878  0.00  0.00    +0.000 C 
ENDBRANCH   8   9
ENDBRANCH   2   8
TORSDOF 5
