REMARK  Name = ligand_995242
REMARK  4 active torsions:
REMARK  status: ('A' for Active; 'I' for Inactive)
REMARK    1  A    between atoms: C_2  and  C_3
REMARK    2  A    between atoms: C_4  and  C_5
REMARK    3  A    between atoms: C_5  and  O_6
REMARK    4  A    between atoms: O_6  and  C_7
REMARK                            x       y       z     vdW  Elec       q    Type
REMARK                         _______ _______ _______ _____ _____    ______ ____
ROOT
ATOM      1  C   UNL     1       5.923  -0.816   0.721  0.00  0.00    +0.000 C 
ENDROOT
BRANCH   1   3
ATOM      2  C   UNL     1       3.758  -0.030  -0.138  0.00  0.00    +0.000 C 
ATOM      3  C   UNL     1       4.436  -0.840   0.688  0.00  0.00    +0.000 C 
BRANCH   2   5
ATOM      4  C   UNL     1       0.934  -0.022  -0.144  0.00  0.00    +0.000 C 
ATOM      5  C   UNL     1       2.238  -0.026  -0.141  0.00  0.00    +0.000 C 
ENDBRANCH   2   5
ENDBRANCH   1   3
BRANCH   1   6
ATOM      6  O   UNL     1       6.430  -1.764   1.661  0.00  0.00    +0.000 OA
BRANCH   6   7
ATOM      7  C   UNL     1       7.876  -1.741   1.698  0.00  0.00    +0.000 C 
ATOM      8  C   UNL     1       8.538  -2.686   2.658  0.00  0.00    +0.000 C 
ATOM      9  C   UNL     1       8.480  -1.218   2.969  0.00  0.00    +0.000 C 
ENDBRANCH   6   7
ENDBRANCH   1   6
TORSDOF 4
