REMARK  Name = ligand_995518
REMARK  6 active torsions:
REMARK  status: ('A' for Active; 'I' for Inactive)
REMARK    1  A    between atoms: C_1  and  C_2
REMARK    2  A    between atoms: C_3  and  C_4
REMARK    3  A    between atoms: C_4  and  C_5
REMARK    4  A    between atoms: C_5  and  O_6
REMARK    5  A    between atoms: C_5  and  C_7
REMARK    6  A    between atoms: C_7  and  C_8
REMARK                            x       y       z     vdW  Elec       q    Type
REMARK                         _______ _______ _______ _____ _____    ______ ____
ROOT
ATOM      1  C   UNL     1       5.255   0.011   2.561  0.00  0.00    +0.000 C 
ENDROOT
BRANCH   1   2
ATOM      2  O   UNL     1       4.777  -1.150   3.253  0.00  0.00    +0.000 OA
ATOM      3  H   UNL     1       5.089  -1.931   2.762  0.00  0.00    +0.000 HD
ENDBRANCH   1   2
BRANCH   1   4
ATOM      4  C   UNL     1       4.706   0.058   1.122  0.00  0.00    +0.000 C 
BRANCH   4   7
ATOM      5  C   UNL     1       0.995   1.050   0.443  0.00  0.00    +0.000 C 
ATOM      6  C   UNL     1       2.487   1.070   0.502  0.00  0.00    +0.000 C 
ATOM      7  C   UNL     1       3.203   0.092   1.075  0.00  0.00    +0.000 C 
ENDBRANCH   4   7
ENDBRANCH   1   4
BRANCH   1   8
ATOM      8  C   UNL     1       6.794   0.045   2.599  0.00  0.00    +0.000 C 
BRANCH   8   9
ATOM      9  C   UNL     1       7.397  -1.096   1.883  0.00  0.00    +0.000 C 
ATOM     10  C   UNL     1       7.847  -2.039   1.288  0.00  0.00    +0.000 C 
ENDBRANCH   8   9
ENDBRANCH   1   8
TORSDOF 5
