REMARK  Name = ligand_996213
REMARK  7 active torsions:
REMARK  status: ('A' for Active; 'I' for Inactive)
REMARK    1  A    between atoms: C_1  and  C_2
REMARK    2  A    between atoms: C_2  and  C_3
REMARK    3  A    between atoms: C_3  and  C_4
REMARK    4  A    between atoms: C_3  and  C_7
REMARK    5  A    between atoms: C_4  and  C_5
REMARK    6  A    between atoms: C_7  and  C_8
REMARK    7  A    between atoms: C_7  and  O_9
REMARK                            x       y       z     vdW  Elec       q    Type
REMARK                         _______ _______ _______ _____ _____    ______ ____
ROOT
ATOM      1  C   UNL     1       3.069  -0.229   1.399  0.00  0.00    +0.000 C 
ENDROOT
BRANCH   1   3
ATOM      2  C   UNL     1       1.032   0.003  -0.165  0.00  0.00    +0.000 C 
ATOM      3  C   UNL     1       2.549   0.010  -0.035  0.00  0.00    +0.000 C 
ENDBRANCH   1   3
BRANCH   1   4
ATOM      4  C   UNL     1       4.615  -0.159   1.462  0.00  0.00    +0.000 C 
ATOM      5  C   UNL     1       5.207   1.173   1.012  0.00  0.00    +0.000 C 
BRANCH   4   6
ATOM      6  O   UNL     1       5.039  -0.405   2.804  0.00  0.00    +0.000 OA
ATOM      7  H   UNL     1       4.819   0.381   3.336  0.00  0.00    +0.000 HD
ENDBRANCH   4   6
ENDBRANCH   1   4
BRANCH   1   8
ATOM      8  C   UNL     1       2.546  -1.542   2.021  0.00  0.00    +0.000 C 
BRANCH   8   9
ATOM      9  C   UNL     1       3.042  -2.769   1.299  0.00  0.00    +0.000 C 
ATOM     10  O   UNL     1       2.391  -3.349   0.436  0.00  0.00    +0.000 OA
ENDBRANCH   8   9
ENDBRANCH   1   8
TORSDOF 5
