REMARK  Name = ligand_996338
REMARK  5 active torsions:
REMARK  status: ('A' for Active; 'I' for Inactive)
REMARK    1  A    between atoms: C_1  and  C_2
REMARK    2  A    between atoms: C_2  and  C_3
REMARK    3  A    between atoms: C_4  and  C_5
REMARK    4  A    between atoms: C_4  and  C_7
REMARK    5  A    between atoms: C_7  and  O_8
REMARK                            x       y       z     vdW  Elec       q    Type
REMARK                         _______ _______ _______ _____ _____    ______ ____
ROOT
ATOM      1  C   UNL     1       0.951  -0.034   0.037  0.00  0.00    +0.000 C 
ATOM      2  C   UNL     1       2.463  -0.062   0.094  0.00  0.00    +0.000 C 
ATOM      3  C   UNL     1       3.115   0.524  -1.143  0.00  0.00    +0.000 C 
ATOM      4  C   UNL     1       3.159  -0.563   1.154  0.00  0.00    +0.000 C 
ENDROOT
BRANCH   4   5
ATOM      5  C   UNL     1       2.397  -1.112   2.313  0.00  0.00    +0.000 C 
ATOM      6  O   UNL     1       2.965  -1.579   3.300  0.00  0.00    +0.000 OA
ENDBRANCH   4   5
BRANCH   4   7
ATOM      7  C   UNL     1       4.658  -0.582   1.194  0.00  0.00    +0.000 C 
ATOM      8  O   UNL     1       5.375  -0.159   0.300  0.00  0.00    +0.000 OA
BRANCH   7   9
ATOM      9  O   UNL     1       5.199  -1.113   2.316  0.00  0.00    +0.000 OA
ATOM     10  H   UNL     1       4.546  -1.431   2.987  0.00  0.00    +0.000 HD
ENDBRANCH   7   9
ENDBRANCH   4   7
TORSDOF 3
