REMARK  Name = ligand_996502
REMARK  6 active torsions:
REMARK  status: ('A' for Active; 'I' for Inactive)
REMARK    1  A    between atoms: C_1  and  C_2
REMARK    2  A    between atoms: C_2  and  C_3
REMARK    3  A    between atoms: C_3  and  C_4
REMARK    4  A    between atoms: C_3  and  O_5
REMARK    5  A    between atoms: C_3  and  C_6
REMARK    6  A    between atoms: C_8  and  O_9
REMARK                            x       y       z     vdW  Elec       q    Type
REMARK                         _______ _______ _______ _____ _____    ______ ____
ROOT
ATOM      1  C   UNL     1       2.962  -1.176   0.691  0.00  0.00    +0.000 C 
ATOM      2  C   UNL     1       2.472  -1.304   2.139  0.00  0.00    +0.000 C 
ENDROOT
BRANCH   1   3
ATOM      3  C   UNL     1       4.479  -1.200   0.662  0.00  0.00    +0.000 C 
ATOM      4  C   UNL     1       5.254  -1.249  -0.635  0.00  0.00    +0.000 C 
ATOM      5  C   UNL     1       5.312  -2.414   0.307  0.00  0.00    +0.000 C 
BRANCH   5   6
ATOM      6  O   UNL     1       4.643  -3.594  -0.152  0.00  0.00    +0.000 OA
ATOM      7  H   UNL     1       3.690  -3.401  -0.294  0.00  0.00    +0.000 HD
ENDBRANCH   5   6
ENDBRANCH   1   3
BRANCH   1   9
ATOM      8  C   UNL     1       2.784   1.412   0.618  0.00  0.00    +0.000 C 
ATOM      9  C   UNL     1       2.395   0.079  -0.004  0.00  0.00    +0.000 C 
ENDBRANCH   1   9
BRANCH   1  10
ATOM     10  O   UNL     1       2.445  -2.310  -0.028  0.00  0.00    +0.000 OA
ATOM     11  H   UNL     1       1.476  -2.299   0.075  0.00  0.00    +0.000 HD
ENDBRANCH   1  10
TORSDOF 4
