REMARK  Name = ligand_997196
REMARK  7 active torsions:
REMARK  status: ('A' for Active; 'I' for Inactive)
REMARK    1  A    between atoms: C_1  and  C_2
REMARK    2  A    between atoms: C_2  and  C_3
REMARK    3  A    between atoms: C_3  and  C_4
REMARK    4  A    between atoms: C_3  and  O_5
REMARK    5  A    between atoms: C_3  and  C_7
REMARK    6  A    between atoms: O_5  and  C_6
REMARK    7  A    between atoms: C_8  and  C_9
REMARK                            x       y       z     vdW  Elec       q    Type
REMARK                         _______ _______ _______ _____ _____    ______ ____
ROOT
ATOM      1  C   UNL     1       2.986  -0.467  -1.379  0.00  0.00    +0.000 C 
ATOM      2  C   UNL     1       2.503  -1.910  -1.608  0.00  0.00    +0.000 C 
ENDROOT
BRANCH   1   3
ATOM      3  C   UNL     1       4.520  -0.475  -1.395  0.00  0.00    +0.000 C 
ATOM      4  C   UNL     1       5.285  -0.830  -2.442  0.00  0.00    +0.000 C 
ATOM      5  C   UNL     1       6.779  -0.818  -2.435  0.00  0.00    +0.000 C 
ENDBRANCH   1   3
BRANCH   1   7
ATOM      6  C   UNL     1       1.060   0.060   0.355  0.00  0.00    +0.000 C 
ATOM      7  C   UNL     1       2.545   0.085   0.007  0.00  0.00    +0.000 C 
ENDBRANCH   1   7
BRANCH   1   8
ATOM      8  O   UNL     1       2.638   0.385  -2.477  0.00  0.00    +0.000 OA
ATOM      9  C   UNL     1       1.271   0.637  -2.735  0.00  0.00    +0.000 C 
ENDBRANCH   1   8
TORSDOF 3
