REMARK  Name = ligand_997301
REMARK  8 active torsions:
REMARK  status: ('A' for Active; 'I' for Inactive)
REMARK    1  A    between atoms: C_1  and  C_2
REMARK    2  A    between atoms: C_2  and  C_3
REMARK    3  A    between atoms: C_3  and  C_4
REMARK    4  A    between atoms: C_4  and  O_5
REMARK    5  A    between atoms: C_4  and  C_6
REMARK    6  A    between atoms: C_6  and  C_7
REMARK    7  A    between atoms: C_7  and  C_8
REMARK    8  A    between atoms: C_7  and  C_9
REMARK                            x       y       z     vdW  Elec       q    Type
REMARK                         _______ _______ _______ _____ _____    ______ ____
ROOT
ATOM      1  C   UNL     1       4.522   1.078   0.879  0.00  0.00    +0.000 C 
ENDROOT
BRANCH   1   2
ATOM      2  O   UNL     1       4.960   1.408  -0.441  0.00  0.00    +0.000 OA
ATOM      3  H   UNL     1       4.588   2.277  -0.671  0.00  0.00    +0.000 HD
ENDBRANCH   1   2
BRANCH   1   4
ATOM      4  C   UNL     1       2.990   1.024   0.907  0.00  0.00    +0.000 C 
BRANCH   4   6
ATOM      5  C   UNL     1       0.911  -0.088   0.018  0.00  0.00    +0.000 C 
ATOM      6  C   UNL     1       2.430  -0.035  -0.047  0.00  0.00    +0.000 C 
ENDBRANCH   4   6
ENDBRANCH   1   4
BRANCH   1   7
ATOM      7  C   UNL     1       5.110   2.120   1.844  0.00  0.00    +0.000 C 
BRANCH   7   8
ATOM      8  C   UNL     1       4.794   1.910   3.336  0.00  0.00    +0.000 C 
ATOM      9  C   UNL     1       5.292   0.559   3.850  0.00  0.00    +0.000 C 
ATOM     10  C   UNL     1       5.413   3.041   4.162  0.00  0.00    +0.000 C 
ENDBRANCH   7   8
ENDBRANCH   1   7
TORSDOF 5
