REMARK  Name = ligand_997341
REMARK  4 active torsions:
REMARK  status: ('A' for Active; 'I' for Inactive)
REMARK    1  A    between atoms: C_2  and  C_3
REMARK    2  A    between atoms: C_2  and  C_6
REMARK    3  A    between atoms: C_3  and  C_4
REMARK    4  A    between atoms: C_7  and  C_8
REMARK                            x       y       z     vdW  Elec       q    Type
REMARK                         _______ _______ _______ _____ _____    ______ ____
ROOT
ATOM      1  C   UNL     1       1.068   0.000  -0.092  0.00  0.00    +0.000 C 
ATOM      2  C   UNL     1       2.408   0.062  -0.063  0.00  0.00    +0.000 C 
ENDROOT
BRANCH   2   3
ATOM      3  C   UNL     1       3.168  -0.767  -1.085  0.00  0.00    +0.000 C 
ATOM      4  C   UNL     1       3.820  -1.479  -1.962  0.00  0.00    +0.000 C 
BRANCH   4   5
ATOM      5  C   UNL     1       4.520  -2.273  -2.938  0.00  0.00    +0.000 C 
ATOM      6  O   UNL     1       3.908  -2.891  -3.797  0.00  0.00    +0.000 OA
ENDBRANCH   4   5
ENDBRANCH   2   3
BRANCH   2   7
ATOM      7  C   UNL     1       3.174   0.931   0.895  0.00  0.00    +0.000 C 
BRANCH   7   8
ATOM      8  C   UNL     1       4.087   0.077   1.739  0.00  0.00    +0.000 C 
ATOM      9  O   UNL     1       5.310   0.191   1.744  0.00  0.00    +0.000 OA
ENDBRANCH   7   8
ENDBRANCH   2   7
TORSDOF 4
