REMARK  Name = ligand_997474
REMARK  5 active torsions:
REMARK  status: ('A' for Active; 'I' for Inactive)
REMARK    1  A    between atoms: C_1  and  C_2
REMARK    2  A    between atoms: C_2  and  C_6
REMARK    3  A    between atoms: C_3  and  C_4
REMARK    4  A    between atoms: C_4  and  O_5
REMARK    5  A    between atoms: C_7  and  C_8
REMARK                            x       y       z     vdW  Elec       q    Type
REMARK                         _______ _______ _______ _____ _____    ______ ____
ROOT
ATOM      1  C   UNL     1       1.069  -0.125  -0.044  0.00  0.00    +0.000 C 
ATOM      2  C   UNL     1       2.566  -0.003   0.050  0.00  0.00    +0.000 C 
ATOM      3  C   UNL     1       3.213   0.949   0.751  0.00  0.00    +0.000 C 
ENDROOT
BRANCH   2   4
ATOM      4  C   UNL     1       3.344  -0.947  -0.693  0.00  0.00    +0.000 C 
ATOM      5  C   UNL     1       3.973  -1.747  -1.333  0.00  0.00    +0.000 C 
BRANCH   5   6
ATOM      6  C   UNL     1       4.704  -2.718  -2.104  0.00  0.00    +0.000 C 
ATOM      7  O   UNL     1       5.764  -2.431  -2.640  0.00  0.00    +0.000 OA
ENDBRANCH   5   6
ENDBRANCH   2   4
BRANCH   3   8
ATOM      8  C   UNL     1       2.599   2.032   1.578  0.00  0.00    +0.000 C 
BRANCH   8   9
ATOM      9  O   UNL     1       3.454   2.305   2.679  0.00  0.00    +0.000 OA
ATOM     10  H   UNL     1       3.457   1.512   3.241  0.00  0.00    +0.000 HD
ENDBRANCH   8   9
ENDBRANCH   3   8
TORSDOF 4
