REMARK  Name = ligand_997974
REMARK  5 active torsions:
REMARK  status: ('A' for Active; 'I' for Inactive)
REMARK    1  A    between atoms: C_1  and  C_2
REMARK    2  A    between atoms: C_3  and  C_4
REMARK    3  A    between atoms: C_4  and  C_6
REMARK    4  A    between atoms: C_6  and  O_7
REMARK    5  A    between atoms: C_6  and  C_8
REMARK                            x       y       z     vdW  Elec       q    Type
REMARK                         _______ _______ _______ _____ _____    ______ ____
ROOT
ATOM      1  C   UNL     1       1.292  -0.436   0.036  0.00  0.00    +0.000 C 
ATOM      2  O   UNL     1       1.114   0.354   0.958  0.00  0.00    +0.000 OA
ENDROOT
BRANCH   1   5
ATOM      3  C   UNL     1       0.796   0.635  -3.904  0.00  0.00    +0.000 C 
ATOM      4  C   UNL     1       0.958   0.296  -2.490  0.00  0.00    +0.000 C 
ATOM      5  C   UNL     1       1.100  -0.010  -1.336  0.00  0.00    +0.000 C 
ENDBRANCH   1   5
BRANCH   1   6
ATOM      6  C   UNL     1       1.696  -1.911   0.227  0.00  0.00    +0.000 C 
BRANCH   6   7
ATOM      7  O   UNL     1       2.446  -2.125   1.416  0.00  0.00    +0.000 OA
ATOM      8  H   UNL     1       1.920  -1.727   2.136  0.00  0.00    +0.000 HD
ENDBRANCH   6   7
BRANCH   6   9
ATOM      9  C   UNL     1       0.532  -2.862   0.278  0.00  0.00    +0.000 C 
ATOM     10  C   UNL     1      -0.719  -2.592   0.681  0.00  0.00    +0.000 C 
ENDBRANCH   6   9
ENDBRANCH   1   6
TORSDOF 4
