REMARK  Name = ligand_998114
REMARK  7 active torsions:
REMARK  status: ('A' for Active; 'I' for Inactive)
REMARK    1  A    between atoms: C_1  and  C_2
REMARK    2  A    between atoms: C_2  and  C_4
REMARK    3  A    between atoms: C_4  and  O_5
REMARK    4  A    between atoms: C_4  and  C_6
REMARK    5  A    between atoms: C_6  and  O_7
REMARK    6  A    between atoms: C_6  and  C_8
REMARK    7  A    between atoms: C_8  and  O_9
REMARK                            x       y       z     vdW  Elec       q    Type
REMARK                         _______ _______ _______ _____ _____    ______ ____
ROOT
ATOM      1  C   UNL     1       3.270  -0.798   0.947  0.00  0.00    +0.000 C 
ENDROOT
BRANCH   1   3
ATOM      2  C   UNL     1       0.969  -0.049   0.126  0.00  0.00    +0.000 C 
ATOM      3  C   UNL     1       2.465   0.030  -0.045  0.00  0.00    +0.000 C 
ATOM      4  C   UNL     1       2.989   0.808  -1.008  0.00  0.00    +0.000 C 
ENDBRANCH   1   3
BRANCH   1   5
ATOM      5  O   UNL     1       2.885  -2.164   0.765  0.00  0.00    +0.000 OA
ATOM      6  H   UNL     1       2.885  -2.332  -0.194  0.00  0.00    +0.000 HD
ENDBRANCH   1   5
BRANCH   1   7
ATOM      7  C   UNL     1       4.819  -0.702   0.889  0.00  0.00    +0.000 C 
BRANCH   7   8
ATOM      8  O   UNL     1       5.282   0.634   1.135  0.00  0.00    +0.000 OA
ATOM      9  H   UNL     1       5.103   0.843   2.068  0.00  0.00    +0.000 HD
ENDBRANCH   7   8
BRANCH   7  10
ATOM     10  C   UNL     1       5.478  -1.651   1.908  0.00  0.00    +0.000 C 
BRANCH  10  11
ATOM     11  O   UNL     1       6.903  -1.547   1.875  0.00  0.00    +0.000 OA
ATOM     12  H   UNL     1       7.158  -1.204   1.000  0.00  0.00    +0.000 HD
ENDBRANCH  10  11
ENDBRANCH   7  10
ENDBRANCH   1   7
TORSDOF 6
