REMARK  Name = ligand_998288
REMARK  5 active torsions:
REMARK  status: ('A' for Active; 'I' for Inactive)
REMARK    1  A    between atoms: C_1  and  C_2
REMARK    2  A    between atoms: C_2  and  C_3
REMARK    3  A    between atoms: C_3  and  C_4
REMARK    4  A    between atoms: C_4  and  O_5
REMARK    5  A    between atoms: C_7  and  C_8
REMARK                            x       y       z     vdW  Elec       q    Type
REMARK                         _______ _______ _______ _____ _____    ______ ____
ROOT
ATOM      1  C   UNL     1       0.966   0.263  -0.352  0.00  0.00    +0.000 C 
ATOM      2  C   UNL     1       2.442   0.124  -0.062  0.00  0.00    +0.000 C 
ATOM      3  C   UNL     1       3.249   0.592  -1.048  0.00  0.00    +0.000 C 
ENDROOT
BRANCH   3   4
ATOM      4  C   UNL     1       4.694   0.601  -1.064  0.00  0.00    +0.000 C 
ATOM      5  C   UNL     1       5.393   1.092  -2.095  0.00  0.00    +0.000 C 
ENDBRANCH   3   4
BRANCH   2   6
ATOM      6  C   UNL     1       3.045  -0.476   1.201  0.00  0.00    +0.000 C 
BRANCH   6   7
ATOM      7  C   UNL     1       2.280  -1.052   2.421  0.00  0.00    +0.000 C 
ATOM      8  O   UNL     1       1.071  -1.100   2.530  0.00  0.00    +0.000 OA
BRANCH   7   9
ATOM      9  O   UNL     1       3.073  -1.522   3.408  0.00  0.00    +0.000 OA
ATOM     10  H   UNL     1       4.040  -1.486   3.321  0.00  0.00    +0.000 HD
ENDBRANCH   7   9
ENDBRANCH   6   7
ENDBRANCH   2   6
TORSDOF 4
