REMARK  Name = ligand_998335
REMARK  7 active torsions:
REMARK  status: ('A' for Active; 'I' for Inactive)
REMARK    1  A    between atoms: C_1  and  C_2
REMARK    2  A    between atoms: C_2  and  C_3
REMARK    3  A    between atoms: C_3  and  C_4
REMARK    4  A    between atoms: C_3  and  O_6
REMARK    5  A    between atoms: C_3  and  C_8
REMARK    6  A    between atoms: C_4  and  O_5
REMARK    7  A    between atoms: O_6  and  C_7
REMARK                            x       y       z     vdW  Elec       q    Type
REMARK                         _______ _______ _______ _____ _____    ______ ____
ROOT
ATOM      1  C   UNL     1       3.015  -0.278   1.497  0.00  0.00    +0.000 C 
ENDROOT
BRANCH   1   3
ATOM      2  C   UNL     1       3.020   1.169  -0.654  0.00  0.00    +0.000 C 
ATOM      3  C   UNL     1       2.536  -0.105   0.038  0.00  0.00    +0.000 C 
ENDBRANCH   1   3
BRANCH   1   4
ATOM      4  O   UNL     1       2.595  -1.523   2.099  0.00  0.00    +0.000 OA
ATOM      5  C   UNL     1       1.229  -1.879   1.949  0.00  0.00    +0.000 C 
ENDBRANCH   1   4
BRANCH   1   6
ATOM      6  C   UNL     1       4.544  -0.387   1.542  0.00  0.00    +0.000 C 
ATOM      7  O   UNL     1       5.259  -0.684   0.586  0.00  0.00    +0.000 OA
ENDBRANCH   1   6
BRANCH   1   8
ATOM      8  C   UNL     1       2.580   0.898   2.393  0.00  0.00    +0.000 C 
BRANCH   8   9
ATOM      9  O   UNL     1       2.872   0.649   3.770  0.00  0.00    +0.000 OA
ATOM     10  H   UNL     1       2.511  -0.234   3.976  0.00  0.00    +0.000 HD
ENDBRANCH   8   9
ENDBRANCH   1   8
TORSDOF 5
