REMARK  Name = ligand_998345
REMARK  4 active torsions:
REMARK  status: ('A' for Active; 'I' for Inactive)
REMARK    1  A    between atoms: C_2  and  C_3
REMARK    2  A    between atoms: C_2  and  C_8
REMARK    3  A    between atoms: C_3  and  O_4
REMARK    4  A    between atoms: O_4  and  C_5
REMARK                            x       y       z     vdW  Elec       q    Type
REMARK                         _______ _______ _______ _____ _____    ______ ____
ROOT
ATOM      1  C   UNL     1       3.120  -1.212  -0.612  0.00  0.00    +0.000 C 
ENDROOT
BRANCH   1   3
ATOM      2  C   UNL     1       1.080  -0.194   0.488  0.00  0.00    +0.000 C 
ATOM      3  C   UNL     1       2.304  -0.069  -0.044  0.00  0.00    +0.000 C 
BRANCH   3   4
ATOM      4  C   UNL     1       2.914   1.322  -0.098  0.00  0.00    +0.000 C 
ATOM      5  C   UNL     1       3.437   2.515  -0.145  0.00  0.00    +0.000 C 
ENDBRANCH   3   4
ENDBRANCH   1   3
BRANCH   1   6
ATOM      6  O   UNL     1       2.326  -2.290  -1.132  0.00  0.00    +0.000 OA
BRANCH   6   7
ATOM      7  C   UNL     1       3.161  -3.346  -1.678  0.00  0.00    +0.000 C 
ATOM      8  C   UNL     1       2.468  -4.537  -2.279  0.00  0.00    +0.000 C 
ATOM      9  C   UNL     1       3.113  -4.647  -0.927  0.00  0.00    +0.000 C 
ENDBRANCH   6   7
ENDBRANCH   1   6
TORSDOF 4
