REMARK  Name = ligand_998443
REMARK  6 active torsions:
REMARK  status: ('A' for Active; 'I' for Inactive)
REMARK    1  A    between atoms: C_1  and  C_2
REMARK    2  A    between atoms: C_2  and  C_3
REMARK    3  A    between atoms: C_3  and  O_4
REMARK    4  A    between atoms: C_3  and  C_5
REMARK    5  A    between atoms: C_7  and  C_8
REMARK    6  A    between atoms: C_7  and  O_9
REMARK                            x       y       z     vdW  Elec       q    Type
REMARK                         _______ _______ _______ _____ _____    ______ ____
ROOT
ATOM      1  C   UNL     1       4.535   1.192  -0.060  0.00  0.00    +0.000 C 
ATOM      2  C   UNL     1       5.319   2.027  -1.046  0.00  0.00    +0.000 C 
ATOM      3  C   UNL     1       5.251   0.533  -1.217  0.00  0.00    +0.000 C 
ATOM      4  C   UNL     1       6.445  -0.323  -0.945  0.00  0.00    +0.000 C 
ENDROOT
BRANCH   3   5
ATOM      5  O   UNL     1       4.446   0.055  -2.302  0.00  0.00    +0.000 OA
ATOM      6  H   UNL     1       4.016   0.778  -2.790  0.00  0.00    +0.000 HD
ENDBRANCH   3   5
BRANCH   1   7
ATOM      7  C   UNL     1       3.035   1.251  -0.009  0.00  0.00    +0.000 C 
BRANCH   7   9
ATOM      8  C   UNL     1       2.744  -1.179   0.714  0.00  0.00    +0.000 C 
ATOM      9  C   UNL     1       2.446   0.281   1.021  0.00  0.00    +0.000 C 
ENDBRANCH   7   9
BRANCH   7  10
ATOM     10  O   UNL     1       2.653   2.580   0.344  0.00  0.00    +0.000 OA
ATOM     11  H   UNL     1       3.032   2.768   1.220  0.00  0.00    +0.000 HD
ENDBRANCH   7  10
ENDBRANCH   1   7
TORSDOF 4
