REMARK  Name = ligand_998538
REMARK  3 active torsions:
REMARK  status: ('A' for Active; 'I' for Inactive)
REMARK    1  A    between atoms: C_1  and  C_2
REMARK    2  A    between atoms: C_3  and  O_4
REMARK    3  A    between atoms: O_4  and  C_5
REMARK                            x       y       z     vdW  Elec       q    Type
REMARK                         _______ _______ _______ _____ _____    ______ ____
ROOT
ATOM      1  C   UNL     1       5.191  -1.845  -1.645  0.00  0.00    +0.000 C 
ATOM      2  C   UNL     1       4.966  -2.072  -2.944  0.00  0.00    +0.000 C 
ATOM      3  C   UNL     1       5.874  -3.125  -3.479  0.00  0.00    +0.000 C 
ATOM      4  C   UNL     1       6.870  -3.358  -2.341  0.00  0.00    +0.000 C 
ATOM      5  C   UNL     1       6.307  -2.665  -1.097  0.00  0.00    +0.000 C 
ENDROOT
BRANCH   1   6
ATOM      6  O   UNL     1       4.572  -0.937  -0.825  0.00  0.00    +0.000 OA
BRANCH   6   9
ATOM      7  C   UNL     1       1.256   0.833  -0.894  0.00  0.00    +0.000 C 
ATOM      8  C   UNL     1       2.695   0.510  -0.670  0.00  0.00    +0.000 C 
ATOM      9  C   UNL     1       3.244  -0.655  -1.030  0.00  0.00    +0.000 C 
ENDBRANCH   6   9
ENDBRANCH   1   6
TORSDOF 2
