REMARK  Name = ligand_998994
REMARK  5 active torsions:
REMARK  status: ('A' for Active; 'I' for Inactive)
REMARK    1  A    between atoms: C_1  and  C_2
REMARK    2  A    between atoms: C_2  and  C_3
REMARK    3  A    between atoms: C_2  and  O_4
REMARK    4  A    between atoms: C_2  and  C_5
REMARK    5  A    between atoms: C_5  and  C_6
REMARK                            x       y       z     vdW  Elec       q    Type
REMARK                         _______ _______ _______ _____ _____    ______ ____
ROOT
ATOM      1  C   UNL     1       2.978  -0.452  -1.434  0.00  0.00    +0.000 C 
ATOM      2  C   UNL     1       2.508  -0.117  -0.017  0.00  0.00    +0.000 C 
ATOM      3  C   UNL     1       0.974  -0.084   0.016  0.00  0.00    +0.000 C 
ENDROOT
BRANCH   2   4
ATOM      4  O   UNL     1       2.919  -1.158   0.876  0.00  0.00    +0.000 OA
ATOM      5  H   UNL     1       2.625  -2.007   0.497  0.00  0.00    +0.000 HD
ENDBRANCH   2   4
BRANCH   2   6
ATOM      6  C   UNL     1       3.072   1.218   0.508  0.00  0.00    +0.000 C 
BRANCH   6   7
ATOM      7  C   UNL     1       4.594   1.212   0.595  0.00  0.00    +0.000 C 
ATOM      8  C   UNL     1       5.270   2.484   1.142  0.00  0.00    +0.000 C 
ATOM      9  C   UNL     1       6.217   2.290  -0.043  0.00  0.00    +0.000 C 
ATOM     10  O   UNL     1       5.228   1.451  -0.703  0.00  0.00    +0.000 OA
ENDBRANCH   6   7
ENDBRANCH   2   6
TORSDOF 3
