REMARK  Name = ligand_999011
REMARK  4 active torsions:
REMARK  status: ('A' for Active; 'I' for Inactive)
REMARK    1  A    between atoms: C_1  and  C_2
REMARK    2  A    between atoms: C_3  and  O_4
REMARK    3  A    between atoms: O_4  and  C_5
REMARK    4  A    between atoms: C_5  and  C_6
REMARK                            x       y       z     vdW  Elec       q    Type
REMARK                         _______ _______ _______ _____ _____    ______ ____
ROOT
ATOM      1  C   UNL     1       5.201   0.609  -2.229  0.00  0.00    +0.000 C 
ENDROOT
BRANCH   1   2
ATOM      2  C   UNL     1       6.697   0.526  -2.016  0.00  0.00    +0.000 C 
ATOM      3  C   UNL     1       7.335   1.563  -1.085  0.00  0.00    +0.000 C 
ATOM      4  O   UNL     1       8.376   1.833  -2.061  0.00  0.00    +0.000 OA
ATOM      5  C   UNL     1       7.581   1.179  -3.085  0.00  0.00    +0.000 C 
ENDBRANCH   1   2
BRANCH   1   6
ATOM      6  O   UNL     1       4.567   0.360  -0.972  0.00  0.00    +0.000 OA
BRANCH   6   9
ATOM      7  C   UNL     1       0.965   0.293   0.067  0.00  0.00    +0.000 C 
ATOM      8  C   UNL     1       2.456   0.253   0.063  0.00  0.00    +0.000 C 
ATOM      9  C   UNL     1       3.200   0.417  -1.033  0.00  0.00    +0.000 C 
ENDBRANCH   6   9
ENDBRANCH   1   6
TORSDOF 3
