REMARK  Name = ligand_999626
REMARK  6 active torsions:
REMARK  status: ('A' for Active; 'I' for Inactive)
REMARK    1  A    between atoms: C_1  and  C_2
REMARK    2  A    between atoms: C_2  and  C_3
REMARK    3  A    between atoms: C_3  and  O_4
REMARK    4  A    between atoms: O_4  and  C_5
REMARK    5  A    between atoms: C_6  and  C_7
REMARK    6  A    between atoms: C_6  and  C_8
REMARK                            x       y       z     vdW  Elec       q    Type
REMARK                         _______ _______ _______ _____ _____    ______ ____
ROOT
ATOM      1  C   UNL     1       5.226  -2.512  -0.342  0.00  0.00    +0.000 C 
ATOM      2  C   UNL     1       6.433  -2.727   0.204  0.00  0.00    +0.000 C 
ATOM      3  C   UNL     1       7.149  -1.684   1.017  0.00  0.00    +0.000 C 
ENDROOT
BRANCH   2   4
ATOM      4  C   UNL     1       7.077  -3.986   0.008  0.00  0.00    +0.000 C 
ATOM      5  C   UNL     1       7.658  -5.024  -0.152  0.00  0.00    +0.000 C 
ENDBRANCH   2   4
BRANCH   1   6
ATOM      6  O   UNL     1       4.582  -1.308  -0.246  0.00  0.00    +0.000 OA
BRANCH   6   7
ATOM      7  C   UNL     1       3.158  -1.421  -0.235  0.00  0.00    +0.000 C 
BRANCH   7   9
ATOM      8  C   UNL     1       1.088   0.016  -0.000  0.00  0.00    +0.000 C 
ATOM      9  C   UNL     1       2.604  -0.017  -0.014  0.00  0.00    +0.000 C 
ENDBRANCH   7   9
ENDBRANCH   6   7
ENDBRANCH   1   6
TORSDOF 4
