REMARK  Name = ligand_999748
REMARK  6 active torsions:
REMARK  status: ('A' for Active; 'I' for Inactive)
REMARK    1  A    between atoms: C_1  and  C_2
REMARK    2  A    between atoms: C_2  and  O_4
REMARK    3  A    between atoms: O_4  and  C_5
REMARK    4  A    between atoms: C_5  and  C_7
REMARK    5  A    between atoms: C_7  and  C_8
REMARK    6  A    between atoms: C_8  and  O_9
REMARK                            x       y       z     vdW  Elec       q    Type
REMARK                         _______ _______ _______ _____ _____    ______ ____
ROOT
ATOM      1  C   UNL     1       4.826  -0.747  -0.782  0.00  0.00    +0.000 C 
ATOM      2  C   UNL     1       5.607   0.042  -0.023  0.00  0.00    +0.000 C 
ENDROOT
BRANCH   1   3
ATOM      3  O   UNL     1       3.444  -0.799  -0.715  0.00  0.00    +0.000 OA
BRANCH   3   5
ATOM      4  C   UNL     1       1.342  -0.173   0.262  0.00  0.00    +0.000 C 
ATOM      5  C   UNL     1       2.630   0.264  -0.372  0.00  0.00    +0.000 C 
ATOM      6  C   UNL     1       2.877   1.554  -0.653  0.00  0.00    +0.000 C 
ENDBRANCH   3   5
ENDBRANCH   1   3
BRANCH   1   7
ATOM      7  C   UNL     1       5.417  -1.786  -1.709  0.00  0.00    +0.000 C 
BRANCH   7   8
ATOM      8  C   UNL     1       4.956  -1.644  -3.160  0.00  0.00    +0.000 C 
BRANCH   8   9
ATOM      9  O   UNL     1       5.406  -0.421  -3.732  0.00  0.00    +0.000 OA
ATOM     10  H   UNL     1       4.908   0.290  -3.290  0.00  0.00    +0.000 HD
ENDBRANCH   8   9
ENDBRANCH   7   8
ENDBRANCH   1   7
TORSDOF 5
